 Entering Gaussian System, Link 0=g09
 Input=acetate.com
 Output=acetate.log
 AtFile(1): acetate.zmat
             o
             c   1 co2
             o    2 oc3         1 oco3
             c    2 cc4         3 cco4          1 dih4
             h    4 hc5         2 hcc5          3 dih5
             h    4 hc6         2 hcc6          5 dih6
             h    4 hc7         2 hcc7          5 dih7
            
            co2         1.400000
            oc3         1.400000
            oco3        109.471
            cc4         1.450000
            cco4        109.471
            dih4        180.000
            hc5         1.089000
            hcc5        109.471
            dih5        180.000
            hc6         1.089000
            hcc6        109.471
            dih6        120.000
            hc7         1.089000
            hcc7        109.471
            dih7        240.000
 AtFile(1): /home/MARQNET/talipovm/basis-library/def2-SV(P)+d.gbs
            !  Def2-SV(P)  EMSL  Basis Set Exchange Library   3/29/11 8:36 AM
            ! Elements                             References
            ! --------                             ----------
            ! H He Li Be B C N O F Ne Na Mg Al Si P S Cl Ar K Ca Sc Ti V Cr Mn Fe Co Ni Cu Zn Ga Ge As Se Br Kr Rb Sr Y Zr Nb Mo Tc Ru Rh Pd Ag Cd In Sn Sb Te I Xe Cs Ba La Hf Ta W Re Os Ir Pt Au Hg Tl Pb Bi Po At Rn : F. Weigend and R. Ahlrichs, Phys. Chem. Chem. Phys., Balanced basis sets of split valence, triple zeta valence and quadruple zeta valence
            ! quality for H to Rn: Design and assessment of accuracy 7, 3297 (2005).
            !
            -H     0
            S   3   1.00
                 13.0107010              0.19682158E-01
                  1.9622572              0.13796524
                  0.44453796             0.47831935
            S   1   1.00
                  0.12194962             1.0000000
            ****
            -B     0
            S   5   1.00
                839.31830086            -0.55929201074E-02
                126.26464843            -0.41565520771E-01
                 28.620600763           -0.18299816983
                  7.8793722710          -0.46540391866
                  2.4088857172          -0.44173884791
            S   1   1.00
                  0.25105109036          1.0000000
            S   1   1.00
                  0.83648866069E-01            1.0000000
            P   3   1.00
                  6.0332223619          -0.35603672456E-01
                  1.2499157866          -0.19895775769
                  0.33871676350         -0.50850202618
            P   1   1.00
                  0.96415632351E-01            1.0000000
            D   1   1.00
                  0.5000000              1.0000000
            ****
            -C     0
            S   5   1.00
               1238.4016938              0.54568832082E-02
                186.29004992             0.40638409211E-01
                 42.251176346            0.18025593888
                 11.676557932            0.46315121755
                  3.5930506482           0.44087173314
            S   1   1.00
                  0.40245147363          1.0000000
            S   1   1.00
                  0.13090182668          1.0000000
            P   3   1.00
                  9.4680970621           0.38387871728E-01
                  2.0103545142           0.21117025112
                  0.54771004707          0.51328172114
            P   1   1.00
                  0.15268613795          1.0000000
            D   1   1.00
                  0.8000000              1.0000000
            ****
            -N     0
            S   5   1.00
               1712.8415853             -0.53934125305E-02
                257.64812677            -0.40221581118E-01
                 58.458245853           -0.17931144990
                 16.198367905           -0.46376317823
                  5.0052600809          -0.44171422662
            S   1   1.00
                  0.58731856571          1.0000000
            S   1   1.00
                  0.18764592253          1.0000000
            P   3   1.00
                 13.571470233           -0.40072398852E-01
                  2.9257372874          -0.21807045028
                  0.79927750754         -0.51294466049
            P   1   1.00
                  0.21954348034          1.0000000
            D   1   1.00
                  1.0000000              1.0000000
            ****
            -O     0
            S   5   1.00
               2266.1767785             -0.53431809926E-02
                340.87010191            -0.39890039230E-01
                 77.363135167           -0.17853911985
                 21.479644940           -0.46427684959
                  6.6589433124          -0.44309745172
            S   1   1.00
                  0.80975975668          1.0000000
            S   1   1.00
                  0.25530772234          1.0000000
            P   3   1.00
                 17.721504317            0.43394573193E-01
                  3.8635505440           0.23094120765
                  1.0480920883           0.51375311064
            P   1   1.00
                  0.27641544411          1.0000000
            D   1   1.00
                  1.2000000              1.0000000
            ****
            -F     0
            S   5   1.00
               2894.8325990             -0.53408255515E-02
                435.41939120            -0.39904258866E-01
                 98.843328866           -0.17912768038
                 27.485198001           -0.46758090825
                  8.5405498171          -0.44653131020
            S   1   1.00
                  1.0654578038           1.0000000
            S   1   1.00
                  0.33247346748          1.0000000
            P   3   1.00
                 22.696633924           -0.45212874436E-01
                  4.9872339257          -0.23754317067
                  1.3491613954          -0.51287353587
            P   1   1.00
                  0.34829881977          1.0000000
            D   1   1.00
                  1.4000000              1.0000000
            ****
            -S     0
            S   5   1.00
               9184.9303010             -0.22294387756E-02
               1381.5105503             -0.16683029937E-01
                313.87147580            -0.75262436116E-01
                 88.053870623           -0.19376827038
                 27.039914905           -0.17718020803
            S   3   1.00
                 45.648731303           -0.10736062573
                  4.9664522326           0.65066293018
                  2.0116242047           0.59712155354
            S   1   1.00
                  0.35661077013          1.0000000
            S   1   1.00
                  0.13507221477          1.0000000
            P   5   1.00
                261.98233439            -0.92729929822E-02
                 61.306894736           -0.66547669241E-01
                 19.103729887           -0.24828595903
                  6.6567720378          -0.48703847402
                  2.3959635161          -0.39337850312
            P   1   1.00
                  0.61776161679          1.0000000
            P   1   1.00
                  0.16993376871          1.0000000
            D   1   1.00
                  0.5500000              1.0000000
            D   1   1.00
                  2.9940000              1.0000000
            ****
            -Cl     0
            S   5   1.00
              10449.8275660              0.19708362484E-02
               1571.7365221              0.14754727977E-01
                357.12065523             0.66679112875E-01
                100.25185935             0.17228924084
                 30.812727554            0.15883786100
            S   3   1.00
                 51.923789434           -0.10009298909
                  5.7045760975           0.60841752753
                  2.3508376809           0.54352153355
            S   1   1.00
                  0.44605124672          1.0000000
            S   1   1.00
                  0.16848856190          1.0000000
            P   5   1.00
                307.66790569            -0.87801484118E-02
                 72.102015515           -0.63563355471E-01
                 22.532680262           -0.24016428276
                  7.8991765444          -0.47798866557
                  2.8767268321          -0.38515850005
            P   1   1.00
                  0.77459363955          1.0000000
            P   1   1.00
                  0.21037699698          1.0000000
            D   1   1.00
                  0.6500000              1.0000000
            D   1   1.00
                  3.6520000              1.0000000
            ****
            -Al     0
            S   5   1.00
               5887.5727030              0.13483347987E-02
                885.61225996             0.10071576809E-01
                201.13604899             0.45132454056E-01
                 56.284974674            0.11461268043
                 17.229551243            0.10159608943
            S   3   1.00
                 29.340249922            0.69347454208E-01
                  3.0439630420          -0.42528117679
                  1.1285539518          -0.41449832210
            S   1   1.00
                  0.14234175160          1.0000000
            S   1   1.00
                  0.54400192313E-01            1.0000000
            P   5   1.00
                145.11918809             0.63963373134E-02
                 33.717894833            0.44189359965E-01
                 10.369863083            0.15581575993
                  3.5135616036           0.28635286951
                  1.1980050273           0.22921423248
            P   1   1.00
                  0.26583005913          1.0000000
            P   1   1.00
                  0.71003361994E-01            1.0000000
            D   1   1.00
                  0.3000000              1.0000000
            D   1   1.00
                  1.1950000              1.0000000
            ****
            -Ti     0
            S   6   1.00
              42961.5121850              0.39127635355E-02
               6450.9759169              0.29969820489E-01
               1467.7210915              0.14836352707
                414.20997355             0.51347285324
                134.48715840             1.0335365483
                 46.122209796            0.77854233930
            S   3   1.00
                 89.447762543           -0.28385401259
                 10.223346060            1.6772785333
                  4.1353774271           1.2411928456
            S   3   1.00
                  6.7896181452          -0.78399994518E-02
                  1.1106730691           0.25495493019E-01
                  0.47565975578          0.16061172892E-01
            S   1   1.00
                  0.65986956934E-01            1.0000000
            S   1   1.00
                  0.25210342250E-01            1.0000000
            P   5   1.00
                522.03684782             0.19754179642E-01
                122.68649489             0.14460677619
                 38.572903611            0.54669004165
                 13.672169319            1.0531647540
                  5.0118529359           0.69111213363
            P   3   1.00
                  2.4131928282           0.75803437136
                  0.93252270050          1.3036241399
                  0.35429058390          0.53638653300
            P   1   1.00
                  0.1015610              1.0000000
            D   4   1.00
                 23.465125957            0.26536380115E-01
                  6.3332593832           0.13796453963
                  2.0766489946           0.35312644228
                  0.69027361954          0.48647124166
            D   1   1.00
                  0.21088738554          1.0000000
            ****
            -P     0
            S   5   1.00
               8002.4795106              0.57503489302E-02
               1203.6813590              0.43007628959E-01
                273.44227031             0.19363986252
                 76.655541517            0.49651693399
                 23.516927435            0.44983262479
            S   3   1.00
                 39.791683439            0.95188129789E-01
                  4.2770343323          -0.57649840368
                  1.6940256888          -0.54239583865
            S   1   1.00
                  0.27567674644          1.0000000
            S   1   1.00
                  0.10495590099          1.0000000
            P   5   1.00
                219.50755823             0.92100565257E-02
                 51.274155030            0.65409765745E-01
                 15.921595892            0.24033730279
                  5.5069913481           0.46318321788
                  1.9537719426           0.37392563382
            P   1   1.00
                  0.47803397932          1.0000000
            P   1   1.00
                  0.13657952621          1.0000000
            D   1   1.00
                  0.4500000              1.0000000
            D   1   1.00
                   2.5060000              1.0000000
            ****
 Initial command:
 /group/hpc-share/gaussian/2009D/g09/l1.exe "/scratch/gaussian/g_acetate.com-835180.hn1.marqnet.mu.edu/Gau-21422.inp" -scrdir="/scratch/gaussian/g_acetate.com-835180.hn1.marqnet.mu.edu/"
 Entering Link 1 = /group/hpc-share/gaussian/2009D/g09/l1.exe PID=     21426.
  
 Copyright (c) 1988,1990,1992,1993,1995,1998,2003,2009,2013,
            Gaussian, Inc.  All Rights Reserved.
  
 This is part of the Gaussian(R) 09 program.  It is based on
 the Gaussian(R) 03 system (copyright 2003, Gaussian, Inc.),
 the Gaussian(R) 98 system (copyright 1998, Gaussian, Inc.),
 the Gaussian(R) 94 system (copyright 1995, Gaussian, Inc.),
 the Gaussian 92(TM) system (copyright 1992, Gaussian, Inc.),
 the Gaussian 90(TM) system (copyright 1990, Gaussian, Inc.),
 the Gaussian 88(TM) system (copyright 1988, Gaussian, Inc.),
 the Gaussian 86(TM) system (copyright 1986, Carnegie Mellon
 University), and the Gaussian 82(TM) system (copyright 1983,
 Carnegie Mellon University). Gaussian is a federally registered
 trademark of Gaussian, Inc.
  
 This software contains proprietary and confidential information,
 including trade secrets, belonging to Gaussian, Inc.
  
 This software is provided under written license and may be
 used, copied, transmitted, or stored only in accord with that
 written license.
  
 The following legend is applicable only to US Government
 contracts under FAR:
  
                    RESTRICTED RIGHTS LEGEND
  
 Use, reproduction and disclosure by the US Government is
 subject to restrictions as set forth in subparagraphs (a)
 and (c) of the Commercial Computer Software - Restricted
 Rights clause in FAR 52.227-19.
  
 Gaussian, Inc.
 340 Quinnipiac St., Bldg. 40, Wallingford CT 06492
  
  
 ---------------------------------------------------------------
 Warning -- This program may not be used in any manner that
 competes with the business of Gaussian, Inc. or will provide
 assistance to any competitor of Gaussian, Inc.  The licensee
 of this program is prohibited from giving any competitor of
 Gaussian, Inc. access to this program.  By using this program,
 the user acknowledges that Gaussian, Inc. is engaged in the
 business of creating and licensing software in the field of
 computational chemistry and represents and warrants to the
 licensee that it is not a competitor of Gaussian, Inc. and that
 it will not use this program in any manner prohibited above.
 ---------------------------------------------------------------
  

 Cite this work as:
 Gaussian 09, Revision D.01,
 M. J. Frisch, G. W. Trucks, H. B. Schlegel, G. E. Scuseria, 
 M. A. Robb, J. R. Cheeseman, G. Scalmani, V. Barone, B. Mennucci, 
 G. A. Petersson, H. Nakatsuji, M. Caricato, X. Li, H. P. Hratchian, 
 A. F. Izmaylov, J. Bloino, G. Zheng, J. L. Sonnenberg, M. Hada, 
 M. Ehara, K. Toyota, R. Fukuda, J. Hasegawa, M. Ishida, T. Nakajima, 
 Y. Honda, O. Kitao, H. Nakai, T. Vreven, J. A. Montgomery, Jr., 
 J. E. Peralta, F. Ogliaro, M. Bearpark, J. J. Heyd, E. Brothers, 
 K. N. Kudin, V. N. Staroverov, T. Keith, R. Kobayashi, J. Normand, 
 K. Raghavachari, A. Rendell, J. C. Burant, S. S. Iyengar, J. Tomasi, 
 M. Cossi, N. Rega, J. M. Millam, M. Klene, J. E. Knox, J. B. Cross, 
 V. Bakken, C. Adamo, J. Jaramillo, R. Gomperts, R. E. Stratmann, 
 O. Yazyev, A. J. Austin, R. Cammi, C. Pomelli, J. W. Ochterski, 
 R. L. Martin, K. Morokuma, V. G. Zakrzewski, G. A. Voth, 
 P. Salvador, J. J. Dannenberg, S. Dapprich, A. D. Daniels, 
 O. Farkas, J. B. Foresman, J. V. Ortiz, J. Cioslowski, 
 and D. J. Fox, Gaussian, Inc., Wallingford CT, 2013.
 
 ******************************************
 Gaussian 09:  EM64L-G09RevD.01 24-Apr-2013
                14-Oct-2015 
 ******************************************
 %nproc=8
 Will use up to    8 processors via shared memory.
 %chk=acetate.chk
 ------------------------------------------------------------
 #P PBE1PBE/gen scrf(pcm,solvent=diethylether) scf(tight) opt
 ------------------------------------------------------------
 1/14=-1,18=20,19=15,26=3,38=1/1,3;
 2/9=110,12=2,17=6,18=5,40=1/2;
 3/5=7,11=2,16=1,25=1,30=1,70=2201,71=1,72=8,74=-13/1,2,3;
 4//1;
 5/5=2,32=2,38=5,53=8/2;
 6/7=2,8=2,9=2,10=2,28=1/1;
 7//1,2,3,16;
 1/14=-1,18=20,19=15,26=3/3(2);
 2/9=110/2;
 99//99;
 2/9=110/2;
 3/5=7,6=1,11=2,16=1,25=1,30=1,70=2205,71=1,72=8,74=-13,82=7/1,2,3;
 4/5=5,16=3,69=1/1;
 5/5=2,32=2,38=5,53=8/2;
 7//1,2,3,16;
 1/14=-1,18=20,19=15,26=3/3(-5);
 2/9=110/2;
 6/7=2,8=2,9=2,10=2,19=2,28=1/1;
 99/9=1/99;
 Leave Link    1 at Wed Oct 14 11:16:13 2015, MaxMem=           0 cpu:         0.8
 (Enter /group/hpc-share/gaussian/2009D/g09/l101.exe)
 -------
 acetate
 -------
 Symbolic Z-matrix:
 Charge = -1 Multiplicity = 1
 o
 c                    1    co2
 o                    2    oc3      1    oco3
 c                    2    cc4      3    cco4     1    dih4     0
 h                    4    hc5      2    hcc5     3    dih5     0
 h                    4    hc6      2    hcc6     5    dih6     0
 h                    4    hc7      2    hcc7     5    dih7     0
       Variables:
  co2                   1.4                      
  oc3                   1.4                      
  oco3                109.471                    
  cc4                   1.45                     
  cco4                109.471                    
  dih4                180.                       
  hc5                   1.089                    
  hcc5                109.471                    
  dih5                180.                       
  hc6                   1.089                    
  hcc6                109.471                    
  dih6                120.                       
  hc7                   1.089                    
  hcc7                109.471                    
  dih7                240.                       
 
     5 tetrahedral angles replaced.
 NAtoms=      7 NQM=        7 NQMF=       0 NMMI=      0 NMMIF=      0
                NMic=       0 NMicF=      0.
                    Isotopes and Nuclear Properties:
 (Nuclear quadrupole moments (NQMom) in fm**2, nuclear magnetic moments (NMagM)
  in nuclear magnetons)

  Atom         1           2           3           4           5           6           7
 IAtWgt=          16          12          16          12           1           1           1
 AtmWgt=  15.9949146  12.0000000  15.9949146  12.0000000   1.0078250   1.0078250   1.0078250
 NucSpn=           0           0           0           0           1           1           1
 AtZEff=   0.0000000   0.0000000   0.0000000   0.0000000   0.0000000   0.0000000   0.0000000
 NQMom=    0.0000000   0.0000000   0.0000000   0.0000000   0.0000000   0.0000000   0.0000000
 NMagM=    0.0000000   0.0000000   0.0000000   0.0000000   2.7928460   2.7928460   2.7928460
 AtZNuc=   8.0000000   6.0000000   8.0000000   6.0000000   1.0000000   1.0000000   1.0000000
 Leave Link  101 at Wed Oct 14 11:16:13 2015, MaxMem=    33554432 cpu:         1.2
 (Enter /group/hpc-share/gaussian/2009D/g09/l103.exe)

 GradGradGradGradGradGradGradGradGradGradGradGradGradGradGradGradGradGrad
 Berny optimization.
 Initialization pass.
                           ----------------------------
                           !    Initial Parameters    !
                           ! (Angstroms and Degrees)  !
 --------------------------                            --------------------------
 ! Name  Definition              Value          Derivative Info.                !
 --------------------------------------------------------------------------------
 ! R1    R(1,2)                  1.4            estimate D2E/DX2                !
 ! R2    R(2,3)                  1.4            estimate D2E/DX2                !
 ! R3    R(2,4)                  1.45           estimate D2E/DX2                !
 ! R4    R(4,5)                  1.089          estimate D2E/DX2                !
 ! R5    R(4,6)                  1.089          estimate D2E/DX2                !
 ! R6    R(4,7)                  1.089          estimate D2E/DX2                !
 ! A1    A(1,2,3)              109.4712         estimate D2E/DX2                !
 ! A2    A(1,2,4)              141.0576         estimate D2E/DX2                !
 ! A3    A(3,2,4)              109.4712         estimate D2E/DX2                !
 ! A4    A(2,4,5)              109.4712         estimate D2E/DX2                !
 ! A5    A(2,4,6)              109.4712         estimate D2E/DX2                !
 ! A6    A(2,4,7)              109.4712         estimate D2E/DX2                !
 ! A7    A(5,4,6)              109.4712         estimate D2E/DX2                !
 ! A8    A(5,4,7)              109.4712         estimate D2E/DX2                !
 ! A9    A(6,4,7)              109.4712         estimate D2E/DX2                !
 ! D1    D(1,2,4,5)              0.0            estimate D2E/DX2                !
 ! D2    D(1,2,4,6)            120.0            estimate D2E/DX2                !
 ! D3    D(1,2,4,7)           -120.0            estimate D2E/DX2                !
 ! D4    D(3,2,4,5)            180.0            estimate D2E/DX2                !
 ! D5    D(3,2,4,6)            -60.0            estimate D2E/DX2                !
 ! D6    D(3,2,4,7)             60.0            estimate D2E/DX2                !
 --------------------------------------------------------------------------------
 Trust Radius=3.00D-01 FncErr=1.00D-07 GrdErr=1.00D-06
 Number of steps in this run=     31 maximum allowed number of steps=    100.
 GradGradGradGradGradGradGradGradGradGradGradGradGradGradGradGradGradGrad

 Leave Link  103 at Wed Oct 14 11:16:13 2015, MaxMem=    33554432 cpu:         0.1
 (Enter /group/hpc-share/gaussian/2009D/g09/l202.exe)
                          Input orientation:                          
 ---------------------------------------------------------------------
 Center     Atomic      Atomic             Coordinates (Angstroms)
 Number     Number       Type             X           Y           Z
 ---------------------------------------------------------------------
      1          8           0        0.000000    0.000000    0.000000
      2          6           0        0.000000    0.000000    1.400000
      3          8           0        1.319933    0.000000    1.866667
      4          6           0       -0.911382    0.000000    2.527778
      5          1           0       -1.938101    0.000000    2.164778
      6          1           0       -0.740262   -0.889165    3.132778
      7          1           0       -0.740262    0.889165    3.132778
 ---------------------------------------------------------------------
                    Distance matrix (angstroms):
                    1          2          3          4          5
     1  O    0.000000
     2  C    1.400000   0.000000
     3  O    2.286190   1.400000   0.000000
     4  C    2.687057   1.450000   2.327194   0.000000
     5  H    2.905598   2.083536   3.271644   1.089000   0.000000
     6  H    3.339596   2.083536   2.576442   1.089000   1.778330
     7  H    3.339596   2.083536   2.576442   1.089000   1.778330
                    6          7
     6  H    0.000000
     7  H    1.778330   0.000000
 Stoichiometry    C2H3O2(1-)
 Framework group  CS[SG(C2HO2),X(H2)]
 Deg. of freedom    10
 Full point group                 CS      NOp   2
 Largest Abelian subgroup         CS      NOp   2
 Largest concise Abelian subgroup CS      NOp   2
                         Standard orientation:                         
 ---------------------------------------------------------------------
 Center     Atomic      Atomic             Coordinates (Angstroms)
 Number     Number       Type             X           Y           Z
 ---------------------------------------------------------------------
      1          8           0       -0.599403    1.391210    0.000000
      2          6           0        0.000000    0.126016    0.000000
      3          8           0       -0.993036   -0.860838    0.000000
      4          6           0        1.306477   -0.502965    0.000000
      5          1           0        2.078917    0.264666    0.000000
      6          1           0        1.410862   -1.122974    0.889165
      7          1           0        1.410862   -1.122974   -0.889165
 ---------------------------------------------------------------------
 Rotational constants (GHZ):     12.3809050      8.2954072      5.1278997
 Leave Link  202 at Wed Oct 14 11:16:13 2015, MaxMem=    33554432 cpu:         0.1
 (Enter /group/hpc-share/gaussian/2009D/g09/l301.exe)
 General basis read from cards:  (5D, 7F)
 Centers:       5      6      7
 S 3 1.00
     Exponent=  1.3010701000D+01 Coefficients=  1.9682158000D-02
     Exponent=  1.9622572000D+00 Coefficients=  1.3796524000D-01
     Exponent=  4.4453796000D-01 Coefficients=  4.7831935000D-01
 S 1 1.00
     Exponent=  1.2194962000D-01 Coefficients=  1.0000000000D+00
 ****
 Centers:       2      4
 S 5 1.00
     Exponent=  1.2384016938D+03 Coefficients=  5.4568832082D-03
     Exponent=  1.8629004992D+02 Coefficients=  4.0638409211D-02
     Exponent=  4.2251176346D+01 Coefficients=  1.8025593888D-01
     Exponent=  1.1676557932D+01 Coefficients=  4.6315121755D-01
     Exponent=  3.5930506482D+00 Coefficients=  4.4087173314D-01
 S 1 1.00
     Exponent=  4.0245147363D-01 Coefficients=  1.0000000000D+00
 S 1 1.00
     Exponent=  1.3090182668D-01 Coefficients=  1.0000000000D+00
 P 3 1.00
     Exponent=  9.4680970621D+00 Coefficients=  3.8387871728D-02
     Exponent=  2.0103545142D+00 Coefficients=  2.1117025112D-01
     Exponent=  5.4771004707D-01 Coefficients=  5.1328172114D-01
 P 1 1.00
     Exponent=  1.5268613795D-01 Coefficients=  1.0000000000D+00
 D 1 1.00
     Exponent=  8.0000000000D-01 Coefficients=  1.0000000000D+00
 ****
 Centers:       1      3
 S 5 1.00
     Exponent=  2.2661767785D+03 Coefficients= -5.3431809926D-03
     Exponent=  3.4087010191D+02 Coefficients= -3.9890039230D-02
     Exponent=  7.7363135167D+01 Coefficients= -1.7853911985D-01
     Exponent=  2.1479644940D+01 Coefficients= -4.6427684959D-01
     Exponent=  6.6589433124D+00 Coefficients= -4.4309745172D-01
 S 1 1.00
     Exponent=  8.0975975668D-01 Coefficients=  1.0000000000D+00
 S 1 1.00
     Exponent=  2.5530772234D-01 Coefficients=  1.0000000000D+00
 P 3 1.00
     Exponent=  1.7721504317D+01 Coefficients=  4.3394573193D-02
     Exponent=  3.8635505440D+00 Coefficients=  2.3094120765D-01
     Exponent=  1.0480920883D+00 Coefficients=  5.1375311064D-01
 P 1 1.00
     Exponent=  2.7641544411D-01 Coefficients=  1.0000000000D+00
 D 1 1.00
     Exponent=  1.2000000000D+00 Coefficients=  1.0000000000D+00
 ****
 Ernie: Thresh=  0.10000D-02 Tol=  0.10000D-05 Strict=F.
 There are    48 symmetry adapted cartesian basis functions of A'  symmetry.
 There are    18 symmetry adapted cartesian basis functions of A"  symmetry.
 There are    44 symmetry adapted basis functions of A'  symmetry.
 There are    18 symmetry adapted basis functions of A"  symmetry.
    62 basis functions,   112 primitive gaussians,    66 cartesian basis functions
    16 alpha electrons       16 beta electrons
       nuclear repulsion energy       107.3896462989 Hartrees.
 IExCor= 1009 DFT=T Ex+Corr=PBE1PBE ExCW=0 ScaHFX=  0.250000
 ScaDFX=  0.750000  0.750000  1.000000  1.000000 ScalE2=  1.000000  1.000000
 IRadAn=      0 IRanWt=     -1 IRanGd=            0 ICorTp=0 IEmpDi=  4
 NAtoms=    7 NActive=    7 NUniq=    6 SFac= 1.36D+00 NAtFMM=   60 NAOKFM=F Big=F
 Integral buffers will be    131072 words long.
 Raffenetti 2 integral format.
 Two-electron integral symmetry is turned on.
 ------------------------------------------------------------------------------
 Polarizable Continuum Model (PCM)
 =================================
 Model                : PCM (using non-symmetric T matrix).
 Atomic radii         : UFF (Universal Force Field).
 Polarization charges : Total charges.
 Charge compensation  : None.
 Solution method      : On-the-fly selection.
 Cavity type          : Scaled VdW (van der Waals Surface) (Alpha=1.100).
 Cavity algorithm     : GePol (No added spheres)
                        Default sphere list used, NSphG=    7.
                        Lebedev-Laikov grids with approx.  5.0 points / Ang**2.
                        Smoothing algorithm: Karplus/York (Gamma=1.0000).
                        Polarization charges: spherical gaussians, with
                                              point-specific exponents (IZeta= 3).
                        Self-potential: point-specific (ISelfS= 7).
                        Self-field    : sphere-specific E.n sum rule (ISelfD= 2).
 1st derivatives      : Analytical E(r).r(x)/FMM algorithm (CHGder, D1EAlg=3).
                        Cavity 1st derivative terms included.
 Solvent              : DiethylEther, Eps=   4.240000 Eps(inf)=   1.829527
 ------------------------------------------------------------------------------
 Spheres list:
 ISph  on   Nord     Re0    Alpha      Xe            Ye            Ze
    1   O      1    1.7500  1.100     -0.599403      1.391210      0.000000
    2   C      2    1.9255  1.100      0.000000      0.126016      0.000000
    3   O      3    1.7500  1.100     -0.993036     -0.860838      0.000000
    4   C      4    1.9255  1.100      1.306477     -0.502965      0.000000
    5   H      5    1.4430  1.100      2.078917      0.264666      0.000000
    6   H      6    1.4430  1.100      1.410862     -1.122974      0.889165
    7   H      7    1.4430  1.100      1.410862     -1.122974     -0.889165
 ------------------------------------------------------------------------------
 GePol: Number of generator spheres                  =       7
 GePol: Total number of spheres                      =       7
 GePol: Number of exposed spheres                    =       7 (100.00%)
 GePol: Number of points                             =     809
 GePol: Average weight of points                     =       0.14
 GePol: Minimum weight of points                     =   0.67D-07
 GePol: Maximum weight of points                     =    0.20577
 GePol: Number of points with low weight             =      37
 GePol: Fraction of low-weight points (<1% of avg)   =       4.57%
 GePol: Cavity surface area                          =    110.075 Ang**2
 GePol: Cavity volume                                =     92.796 Ang**3
 Leave Link  301 at Wed Oct 14 11:16:13 2015, MaxMem=    33554432 cpu:         1.9
 (Enter /group/hpc-share/gaussian/2009D/g09/l302.exe)
 NPDir=0 NMtPBC=     1 NCelOv=     1 NCel=       1 NClECP=     1 NCelD=      1
         NCelK=      1 NCelE2=     1 NClLst=     1 CellRange=     0.0.
 One-electron integrals computed using PRISM.
 One-electron integral symmetry used in STVInt
 NBasis=    62 RedAO= T EigKep=  4.03D-03  NBF=    44    18
 NBsUse=    62 1.00D-06 EigRej= -1.00D+00 NBFU=    44    18
 Precomputing XC quadrature grid using
 IXCGrd= 4 IRadAn=           0 IRanWt=          -1 IRanGd=           0 AccXCQ= 0.00D+00.
 Generated NRdTot=       0 NPtTot=           0 NUsed=           0 NTot=          32
 NSgBfM=    66    66    66    66    66 MxSgAt=     7 MxSgA2=     7.
 Leave Link  302 at Wed Oct 14 11:16:14 2015, MaxMem=    33554432 cpu:         1.6
 (Enter /group/hpc-share/gaussian/2009D/g09/l303.exe)
 DipDrv:  MaxL=1.
 Leave Link  303 at Wed Oct 14 11:16:14 2015, MaxMem=    33554432 cpu:         0.1
 (Enter /group/hpc-share/gaussian/2009D/g09/l401.exe)
 ExpMin= 1.22D-01 ExpMax= 2.27D+03 ExpMxC= 3.41D+02 IAcc=1 IRadAn=         1 AccDes= 0.00D+00
 Harris functional with IExCor= 1009 and IRadAn=       1 diagonalized for initial guess.
 HarFok:  IExCor= 1009 AccDes= 0.00D+00 IRadAn=         1 IDoV= 1 UseB2=F ITyADJ=14
 ICtDFT=  3500011 ScaDFX=  1.000000  1.000000  1.000000  1.000000
 FoFCou: FMM=F IPFlag=           0 FMFlag=      100000 FMFlg1=           0
         NFxFlg=           0 DoJE=T BraDBF=F KetDBF=T FulRan=T
         wScrn=  0.000000 ICntrl=     500 IOpCl=  0 I1Cent=   200000004 NGrid=           0
         NMat0=    1 NMatS0=      1 NMatT0=    0 NMatD0=    1 NMtDS0=    0 NMtDT0=    0
 Petite list used in FoFCou.
 Harris En= -228.284059403983    
 JPrj=0 DoOrth=F DoCkMO=F.
 Initial guess orbital symmetries:
       Occupied  (A') (A') (A') (A') (A') (A') (A') (A') (A') (A")
                 (A') (A') (A") (A') (A") (A')
       Virtual   (A") (A') (A') (A") (A') (A') (A') (A') (A") (A')
                 (A') (A') (A") (A') (A") (A') (A') (A') (A') (A')
                 (A") (A") (A') (A') (A') (A") (A') (A") (A') (A')
                 (A') (A") (A') (A") (A') (A') (A") (A") (A') (A')
                 (A') (A") (A") (A') (A') (A')
 The electronic state of the initial guess is 1-A'.
 Leave Link  401 at Wed Oct 14 11:16:14 2015, MaxMem=    33554432 cpu:         1.1
 (Enter /group/hpc-share/gaussian/2009D/g09/l502.exe)
 Closed shell SCF:
 Using DIIS extrapolation, IDIIS=  1040.
 Integral symmetry usage will be decided dynamically.
 Keep R1 ints in memory in symmetry-blocked form, NReq=5599046.
 IVT=       32744 IEndB=       32744 NGot=    33554432 MDV=    32528432
 LenX=    32528432 LenY=    32523635
 Requested convergence on RMS density matrix=1.00D-08 within 128 cycles.
 Requested convergence on MAX density matrix=1.00D-06.
 Requested convergence on             energy=1.00D-06.
 No special actions if energy rises.
 FoFCou: FMM=F IPFlag=           0 FMFlag=           0 FMFlg1=           0
         NFxFlg=           0 DoJE=F BraDBF=F KetDBF=F FulRan=T
         wScrn=  0.000000 ICntrl=     600 IOpCl=  0 I1Cent=           0 NGrid=           0
         NMat0=    1 NMatS0=   1953 NMatT0=    0 NMatD0=    1 NMtDS0=    0 NMtDT0=    0
 Petite list used in FoFCou.

 Cycle   1  Pass 1  IDiag  1:
 Inv3:  Mode=1 IEnd=     1963443.
 Iteration    1 A*A^-1 deviation from unit magnitude is 5.77D-15 for    227.
 Iteration    1 A*A^-1 deviation from orthogonality  is 5.87D-15 for    676     42.
 Iteration    1 A^-1*A deviation from unit magnitude is 5.11D-15 for    444.
 Iteration    1 A^-1*A deviation from orthogonality  is 3.05D-14 for    766    677.
 E= -227.880505652585    
 DIIS: error= 6.74D-02 at cycle   1 NSaved=   1.
 NSaved= 1 IEnMin= 1 EnMin= -227.880505652585     IErMin= 1 ErrMin= 6.74D-02
 ErrMax= 6.74D-02  0.00D+00 EMaxC= 1.00D-01 BMatC= 2.37D-01 BMatP= 2.37D-01
 IDIUse=3 WtCom= 3.26D-01 WtEn= 6.74D-01
 Coeff-Com:  0.100D+01
 Coeff-En:   0.100D+01
 Coeff:      0.100D+01
 Gap=     0.069 Goal=   None    Shift=    0.000
 GapD=    0.069 DampG=0.500 DampE=0.500 DampFc=0.2500 IDamp=-1.
 Damping current iteration by 2.50D-01
 RMSDP=2.41D-02 MaxDP=5.74D-01              OVMax= 3.47D-01

 Cycle   2  Pass 1  IDiag  1:
 E= -227.953166701507     Delta-E=       -0.072661048922 Rises=F Damp=T
 DIIS: error= 2.76D-02 at cycle   2 NSaved=   2.
 NSaved= 2 IEnMin= 2 EnMin= -227.953166701507     IErMin= 2 ErrMin= 2.76D-02
 ErrMax= 2.76D-02  0.00D+00 EMaxC= 1.00D-01 BMatC= 3.95D-02 BMatP= 2.37D-01
 IDIUse=3 WtCom= 7.24D-01 WtEn= 2.76D-01
 Coeff-Com: -0.546D+00 0.155D+01
 Coeff-En:   0.000D+00 0.100D+01
 Coeff:     -0.395D+00 0.140D+01
 Gap=     0.202 Goal=   None    Shift=    0.000
 RMSDP=5.21D-03 MaxDP=7.25D-02 DE=-7.27D-02 OVMax= 2.33D-01

 Cycle   3  Pass 1  IDiag  1:
 E= -228.065068543925     Delta-E=       -0.111901842419 Rises=F Damp=F
 DIIS: error= 1.54D-02 at cycle   3 NSaved=   3.
 NSaved= 3 IEnMin= 3 EnMin= -228.065068543925     IErMin= 3 ErrMin= 1.54D-02
 ErrMax= 1.54D-02  0.00D+00 EMaxC= 1.00D-01 BMatC= 1.37D-02 BMatP= 3.95D-02
 IDIUse=3 WtCom= 8.46D-01 WtEn= 1.54D-01
 Coeff-Com: -0.240D+00 0.759D+00 0.481D+00
 Coeff-En:   0.000D+00 0.000D+00 0.100D+01
 Coeff:     -0.203D+00 0.642D+00 0.561D+00
 Gap=     0.209 Goal=   None    Shift=    0.000
 RMSDP=2.68D-03 MaxDP=4.31D-02 DE=-1.12D-01 OVMax= 5.25D-02

 Cycle   4  Pass 1  IDiag  1:
 E= -228.076345418468     Delta-E=       -0.011276874543 Rises=F Damp=F
 DIIS: error= 6.86D-03 at cycle   4 NSaved=   4.
 NSaved= 4 IEnMin= 4 EnMin= -228.076345418468     IErMin= 4 ErrMin= 6.86D-03
 ErrMax= 6.86D-03  0.00D+00 EMaxC= 1.00D-01 BMatC= 2.72D-03 BMatP= 1.37D-02
 IDIUse=3 WtCom= 9.31D-01 WtEn= 6.86D-02
 Coeff-Com: -0.758D-01 0.278D+00 0.328D+00 0.469D+00
 Coeff-En:   0.000D+00 0.000D+00 0.835D-01 0.917D+00
 Coeff:     -0.706D-01 0.259D+00 0.311D+00 0.500D+00
 Gap=     0.211 Goal=   None    Shift=    0.000
 RMSDP=1.15D-03 MaxDP=1.60D-02 DE=-1.13D-02 OVMax= 3.55D-02

 Cycle   5  Pass 1  IDiag  1:
 E= -228.077847476935     Delta-E=       -0.001502058467 Rises=F Damp=F
 DIIS: error= 3.61D-03 at cycle   5 NSaved=   5.
 NSaved= 5 IEnMin= 5 EnMin= -228.077847476935     IErMin= 5 ErrMin= 3.61D-03
 ErrMax= 3.61D-03  0.00D+00 EMaxC= 1.00D-01 BMatC= 8.78D-04 BMatP= 2.72D-03
 IDIUse=3 WtCom= 9.64D-01 WtEn= 3.61D-02
 Coeff-Com:  0.168D-01-0.166D-01 0.970D-01 0.401D+00 0.502D+00
 Coeff-En:   0.000D+00 0.000D+00 0.000D+00 0.287D+00 0.713D+00
 Coeff:      0.162D-01-0.160D-01 0.935D-01 0.397D+00 0.509D+00
 Gap=     0.210 Goal=   None    Shift=    0.000
 RMSDP=4.92D-04 MaxDP=6.56D-03 DE=-1.50D-03 OVMax= 1.40D-02

 Cycle   6  Pass 1  IDiag  1:
 E= -228.078562254697     Delta-E=       -0.000714777762 Rises=F Damp=F
 DIIS: error= 3.05D-04 at cycle   6 NSaved=   6.
 NSaved= 6 IEnMin= 6 EnMin= -228.078562254697     IErMin= 6 ErrMin= 3.05D-04
 ErrMax= 3.05D-04  0.00D+00 EMaxC= 1.00D-01 BMatC= 1.02D-05 BMatP= 8.78D-04
 IDIUse=3 WtCom= 9.97D-01 WtEn= 3.05D-03
 Coeff-Com:  0.104D-01-0.165D-01 0.305D-01 0.149D+00 0.229D+00 0.598D+00
 Coeff-En:   0.000D+00 0.000D+00 0.000D+00 0.000D+00 0.000D+00 0.100D+01
 Coeff:      0.104D-01-0.164D-01 0.304D-01 0.148D+00 0.229D+00 0.599D+00
 Gap=     0.210 Goal=   None    Shift=    0.000
 RMSDP=5.62D-05 MaxDP=7.38D-04 DE=-7.15D-04 OVMax= 8.33D-04

 Cycle   7  Pass 1  IDiag  1:
 E= -228.078571257306     Delta-E=       -0.000009002609 Rises=F Damp=F
 DIIS: error= 5.75D-05 at cycle   7 NSaved=   7.
 NSaved= 7 IEnMin= 7 EnMin= -228.078571257306     IErMin= 7 ErrMin= 5.75D-05
 ErrMax= 5.75D-05  0.00D+00 EMaxC= 1.00D-01 BMatC= 3.61D-07 BMatP= 1.02D-05
 IDIUse=1 WtCom= 1.00D+00 WtEn= 0.00D+00
 Coeff-Com:  0.295D-02-0.505D-02 0.449D-02 0.193D-01 0.423D-01 0.180D+00
 Coeff-Com:  0.756D+00
 Coeff:      0.295D-02-0.505D-02 0.449D-02 0.193D-01 0.423D-01 0.180D+00
 Coeff:      0.756D+00
 Gap=     0.210 Goal=   None    Shift=    0.000
 RMSDP=1.08D-05 MaxDP=1.23D-04 DE=-9.00D-06 OVMax= 1.26D-04

 Cycle   8  Pass 1  IDiag  1:
 E= -228.078571566882     Delta-E=       -0.000000309576 Rises=F Damp=F
 DIIS: error= 1.03D-05 at cycle   8 NSaved=   8.
 NSaved= 8 IEnMin= 8 EnMin= -228.078571566882     IErMin= 8 ErrMin= 1.03D-05
 ErrMax= 1.03D-05  0.00D+00 EMaxC= 1.00D-01 BMatC= 6.89D-09 BMatP= 3.61D-07
 IDIUse=1 WtCom= 1.00D+00 WtEn= 0.00D+00
 Coeff-Com:  0.372D-05 0.381D-04-0.391D-03-0.368D-02-0.421D-02-0.129D-01
 Coeff-Com:  0.284D-01 0.993D+00
 Coeff:      0.372D-05 0.381D-04-0.391D-03-0.368D-02-0.421D-02-0.129D-01
 Coeff:      0.284D-01 0.993D+00
 Gap=     0.210 Goal=   None    Shift=    0.000
 RMSDP=2.08D-06 MaxDP=1.60D-05 DE=-3.10D-07 OVMax= 2.77D-05

 Cycle   9  Pass 1  IDiag  1:
 E= -228.078571573334     Delta-E=       -0.000000006452 Rises=F Damp=F
 DIIS: error= 1.25D-06 at cycle   9 NSaved=   9.
 NSaved= 9 IEnMin= 9 EnMin= -228.078571573334     IErMin= 9 ErrMin= 1.25D-06
 ErrMax= 1.25D-06  0.00D+00 EMaxC= 1.00D-01 BMatC= 8.72D-11 BMatP= 6.89D-09
 IDIUse=1 WtCom= 1.00D+00 WtEn= 0.00D+00
 Coeff-Com: -0.230D-04 0.490D-04-0.915D-04-0.680D-03-0.121D-02-0.461D-02
 Coeff-Com: -0.475D-02 0.153D+00 0.858D+00
 Coeff:     -0.230D-04 0.490D-04-0.915D-04-0.680D-03-0.121D-02-0.461D-02
 Coeff:     -0.475D-02 0.153D+00 0.858D+00
 Gap=     0.210 Goal=   None    Shift=    0.000
 RMSDP=2.23D-07 MaxDP=2.14D-06 DE=-6.45D-09 OVMax= 4.23D-06

 Cycle  10  Pass 1  IDiag  1:
 E= -228.078571573428     Delta-E=       -0.000000000094 Rises=F Damp=F
 DIIS: error= 1.52D-07 at cycle  10 NSaved=  10.
 NSaved=10 IEnMin=10 EnMin= -228.078571573428     IErMin=10 ErrMin= 1.52D-07
 ErrMax= 1.52D-07  0.00D+00 EMaxC= 1.00D-01 BMatC= 3.12D-12 BMatP= 8.72D-11
 IDIUse=1 WtCom= 1.00D+00 WtEn= 0.00D+00
 Coeff-Com:  0.126D-05-0.234D-05 0.521D-05 0.613D-04-0.553D-05-0.108D-03
 Coeff-Com: -0.133D-02-0.217D-01 0.105D+00 0.918D+00
 Coeff:      0.126D-05-0.234D-05 0.521D-05 0.613D-04-0.553D-05-0.108D-03
 Coeff:     -0.133D-02-0.217D-01 0.105D+00 0.918D+00
 Gap=     0.210 Goal=   None    Shift=    0.000
 RMSDP=4.69D-08 MaxDP=4.82D-07 DE=-9.40D-11 OVMax= 1.11D-06

 Cycle  11  Pass 1  IDiag  1:
 E= -228.078571573430     Delta-E=       -0.000000000002 Rises=F Damp=F
 DIIS: error= 9.14D-08 at cycle  11 NSaved=  11.
 NSaved=11 IEnMin=11 EnMin= -228.078571573430     IErMin=11 ErrMin= 9.14D-08
 ErrMax= 9.14D-08  0.00D+00 EMaxC= 1.00D-01 BMatC= 4.15D-13 BMatP= 3.12D-12
 IDIUse=1 WtCom= 1.00D+00 WtEn= 0.00D+00
 Coeff-Com:  0.156D-05-0.234D-05 0.319D-05 0.104D-04 0.306D-04 0.781D-04
 Coeff-Com:  0.539D-05-0.361D-02-0.126D-01 0.134D-01 0.100D+01
 Coeff:      0.156D-05-0.234D-05 0.319D-05 0.104D-04 0.306D-04 0.781D-04
 Coeff:      0.539D-05-0.361D-02-0.126D-01 0.134D-01 0.100D+01
 Gap=     0.210 Goal=   None    Shift=    0.000
 RMSDP=1.23D-08 MaxDP=1.25D-07 DE=-1.65D-12 OVMax= 1.58D-07

 Cycle  12  Pass 1  IDiag  1:
 E= -228.078571573432     Delta-E=       -0.000000000002 Rises=F Damp=F
 DIIS: error= 1.07D-08 at cycle  12 NSaved=  12.
 NSaved=12 IEnMin=12 EnMin= -228.078571573432     IErMin=12 ErrMin= 1.07D-08
 ErrMax= 1.07D-08  0.00D+00 EMaxC= 1.00D-01 BMatC= 5.06D-15 BMatP= 4.15D-13
 IDIUse=1 WtCom= 1.00D+00 WtEn= 0.00D+00
 Coeff-Com:  0.179D-06-0.258D-06 0.461D-06 0.852D-06 0.408D-05 0.827D-05
 Coeff-Com:  0.105D-04-0.127D-03-0.191D-02-0.920D-02 0.266D-01 0.985D+00
 Coeff:      0.179D-06-0.258D-06 0.461D-06 0.852D-06 0.408D-05 0.827D-05
 Coeff:      0.105D-04-0.127D-03-0.191D-02-0.920D-02 0.266D-01 0.985D+00
 Gap=     0.210 Goal=   None    Shift=    0.000
 RMSDP=1.54D-09 MaxDP=1.42D-08 DE=-1.82D-12 OVMax= 1.99D-08

 Error on total polarization charges =  0.00440
 SCF Done:  E(RPBE1PBE) =  -228.078571573     A.U. after   12 cycles
            NFock= 12  Conv=0.15D-08     -V/T= 2.0090
 KE= 2.260450098516D+02 PE=-7.589278122359D+02 EE= 1.974145845119D+02
 Leave Link  502 at Wed Oct 14 11:16:16 2015, MaxMem=    33554432 cpu:        19.0
 (Enter /group/hpc-share/gaussian/2009D/g09/l601.exe)
 Copying SCF densities to generalized density rwf, IOpCl= 0 IROHF=0.

 **********************************************************************

            Population analysis using the SCF density.

 **********************************************************************

 Orbital symmetries:
       Occupied  (A') (A') (A') (A') (A') (A') (A') (A') (A") (A')
                 (A') (A') (A") (A') (A") (A')
       Virtual   (A") (A') (A') (A") (A') (A') (A') (A") (A') (A')
                 (A') (A") (A') (A') (A") (A') (A') (A') (A') (A')
                 (A") (A") (A') (A') (A') (A") (A') (A") (A') (A')
                 (A') (A") (A') (A") (A') (A') (A") (A") (A') (A')
                 (A') (A") (A") (A') (A') (A')
 The electronic state is 1-A'.
 Alpha  occ. eigenvalues --  -19.06737 -19.04414 -10.24758 -10.17663  -0.88424
 Alpha  occ. eigenvalues --   -0.78965  -0.69636  -0.45667  -0.39870  -0.38912
 Alpha  occ. eigenvalues --   -0.33679  -0.27826  -0.25435  -0.17197  -0.14815
 Alpha  occ. eigenvalues --   -0.12439
 Alpha virt. eigenvalues --    0.08578   0.12957   0.18111   0.20807   0.27828
 Alpha virt. eigenvalues --    0.34109   0.36199   0.54533   0.55315   0.57195
 Alpha virt. eigenvalues --    0.64943   0.65240   0.67023   0.73968   0.76388
 Alpha virt. eigenvalues --    0.77139   0.80152   0.93943   1.05803   1.06497
 Alpha virt. eigenvalues --    1.12440   1.19710   1.24608   1.28750   1.51084
 Alpha virt. eigenvalues --    1.51262   1.58809   1.72211   1.76237   1.95543
 Alpha virt. eigenvalues --    2.00970   2.10716   2.21472   2.27943   2.34958
 Alpha virt. eigenvalues --    2.56238   2.79637   2.81074   2.81735   2.85098
 Alpha virt. eigenvalues --    2.94379   3.06121   3.09845   3.34272   3.47691
 Alpha virt. eigenvalues --    3.64185
          Condensed to atoms (all electrons):
               1          2          3          4          5          6
     1  O    8.208619   0.532324  -0.108635  -0.082974   0.011149   0.001497
     2  C    0.532324   4.688490   0.492432   0.137968   0.017529   0.009078
     3  O   -0.108635   0.492432   8.357572  -0.143995   0.011091   0.004357
     4  C   -0.082974   0.137968  -0.143995   5.448877   0.237107   0.342416
     5  H    0.011149   0.017529   0.011091   0.237107   0.673627  -0.017587
     6  H    0.001497   0.009078   0.004357   0.342416  -0.017587   0.538880
     7  H    0.001497   0.009078   0.004357   0.342416  -0.017587  -0.010990
               7
     1  O    0.001497
     2  C    0.009078
     3  O    0.004357
     4  C    0.342416
     5  H   -0.017587
     6  H   -0.010990
     7  H    0.538880
 Mulliken charges:
               1
     1  O   -0.563478
     2  C    0.113102
     3  O   -0.617180
     4  C   -0.281816
     5  H    0.084673
     6  H    0.132349
     7  H    0.132349
 Sum of Mulliken charges =  -1.00000
 Mulliken charges with hydrogens summed into heavy atoms:
               1
     1  O   -0.563478
     2  C    0.113102
     3  O   -0.617180
     4  C    0.067555
 Electronic spatial extent (au):  <R**2>=            267.3046
 Charge=             -1.0000 electrons
 Dipole moment (field-independent basis, Debye):
    X=              5.4519    Y=             -1.7090    Z=              0.0000  Tot=              5.7135
 Quadrupole moment (field-independent basis, Debye-Ang):
   XX=            -30.0620   YY=            -33.9222   ZZ=            -24.1393
   XY=             -0.7734   XZ=              0.0000   YZ=              0.0000
 Traceless Quadrupole moment (field-independent basis, Debye-Ang):
   XX=             -0.6875   YY=             -4.5477   ZZ=              5.2352
   XY=             -0.7734   XZ=              0.0000   YZ=              0.0000
 Octapole moment (field-independent basis, Debye-Ang**2):
  XXX=             -0.5865  YYY=             -6.4644  ZZZ=              0.0000  XYY=              5.5535
  XXY=              1.8937  XXZ=              0.0000  XZZ=             -0.4394  YZZ=             -0.6267
  YYZ=              0.0000  XYZ=              0.0000
 Hexadecapole moment (field-independent basis, Debye-Ang**3):
 XXXX=           -175.4793 YYYY=           -154.6876 ZZZZ=            -27.7721 XXXY=             15.5863
 XXXZ=              0.0000 YYYX=             16.8574 YYYZ=              0.0000 ZZZX=              0.0000
 ZZZY=              0.0000 XXYY=            -54.1624 XXZZ=            -31.7182 YYZZ=            -26.8119
 XXYZ=              0.0000 YYXZ=              0.0000 ZZXY=              4.0107
 N-N= 1.073896462989D+02 E-N=-7.589278121818D+02  KE= 2.260450098516D+02
 Symmetry A'   KE= 2.162856126862D+02
 Symmetry A"   KE= 9.759397165398D+00
 No NMR shielding tensors so no spin-rotation constants.
 Leave Link  601 at Wed Oct 14 11:16:17 2015, MaxMem=    33554432 cpu:         1.6
 (Enter /group/hpc-share/gaussian/2009D/g09/l701.exe)
 Compute integral first derivatives.
 ... and contract with generalized density number  0.
 D1PCM: PCM CHGder 1st derivatives, ID1Alg=3 FixD1E=F DoIter=F DoCFld=F I1PDM=0.
 GePol: Maximum number of non-zero 1st derivatives   =     227
 Leave Link  701 at Wed Oct 14 11:16:17 2015, MaxMem=    33554432 cpu:         3.3
 (Enter /group/hpc-share/gaussian/2009D/g09/l702.exe)
 L702 exits ... SP integral derivatives will be done elsewhere.
 Leave Link  702 at Wed Oct 14 11:16:17 2015, MaxMem=    33554432 cpu:         0.2
 (Enter /group/hpc-share/gaussian/2009D/g09/l703.exe)
 Compute integral first derivatives, UseDBF=F ICtDFT=           0.
 Integral derivatives from FoFJK, PRISM(SPDF).
 Calling FoFJK, ICntrl=      2127 FMM=F ISym2X=1 I1Cent= 0 IOpClX= 0 NMat=1 NMatS=1 NMatT=0.
 FoFJK:  IHMeth= 1 ICntrl=    2127 DoSepK=F KAlg= 0 I1Cent=   0 FoldK=F
 IRaf=         0 NMat=   1 IRICut=       1 DoRegI=T DoRafI=F ISym2E= 1.
 FoFCou: FMM=F IPFlag=           0 FMFlag=      100000 FMFlg1=         800
         NFxFlg=           0 DoJE=F BraDBF=F KetDBF=F FulRan=T
         wScrn=  0.000000 ICntrl=    2127 IOpCl=  0 I1Cent=           0 NGrid=           0
         NMat0=    1 NMatS0=      1 NMatT0=    0 NMatD0=    1 NMtDS0=    0 NMtDT0=    0
 Petite list used in FoFCou.
 Leave Link  703 at Wed Oct 14 11:16:18 2015, MaxMem=    33554432 cpu:         2.1
 (Enter /group/hpc-share/gaussian/2009D/g09/l716.exe)
 Dipole        = 2.14493907D+00-6.72386970D-01 2.22044605D-16
 ***** Axes restored to original set *****
 -------------------------------------------------------------------
 Center     Atomic                   Forces (Hartrees/Bohr)
 Number     Number              X              Y              Z
 -------------------------------------------------------------------
      1        8          -0.054932451    0.000000000    0.125932160
      2        6           0.216441703    0.000000000   -0.116281590
      3        8          -0.108645424    0.000000000   -0.014097274
      4        6          -0.039513409    0.000000000   -0.010226859
      5        1          -0.016599402    0.000000000    0.003899582
      6        1           0.001624491   -0.005706119    0.005386990
      7        1           0.001624491    0.005706119    0.005386990
 -------------------------------------------------------------------
 Cartesian Forces:  Max     0.216441703 RMS     0.066666385
 Leave Link  716 at Wed Oct 14 11:16:18 2015, MaxMem=    33554432 cpu:         0.1
 (Enter /group/hpc-share/gaussian/2009D/g09/l103.exe)

 GradGradGradGradGradGradGradGradGradGradGradGradGradGradGradGradGradGrad
 Berny optimization.
 FormGI is forming the generalized inverse of G from B-inverse, IUseBI=4.
 Internal  Forces:  Max     0.125912772 RMS     0.043642488
 Search for a local minimum.
 Step number   1 out of a maximum of   31
 All quantities printed in internal units (Hartrees-Bohrs-Radians)
 RMS Force = .43642D-01 SwitMx=.10000D-02 MixMth= 1
 Mixed Optimization -- RFO/linear search
 Second derivative matrix not updated -- first step.
 ITU=  0
     Eigenvalues ---    0.01427   0.01427   0.07904   0.07904   0.16000
     Eigenvalues ---    0.16000   0.16000   0.25000   0.25000   0.34928
     Eigenvalues ---    0.34928   0.34928   0.38245   0.45621   0.45621
 RFO step:  Lambda=-8.69382250D-02 EMin= 1.42735158D-02
 Linear search not attempted -- first point.
 Maximum step size (   0.300) exceeded in Quadratic search.
    -- Step size scaled by   0.672
 Iteration  1 RMS(Cart)=  0.05778962 RMS(Int)=  0.00430767
 Iteration  2 RMS(Cart)=  0.00442995 RMS(Int)=  0.00004923
 Iteration  3 RMS(Cart)=  0.00001442 RMS(Int)=  0.00004781
 Iteration  4 RMS(Cart)=  0.00000000 RMS(Int)=  0.00004781
 ITry= 1 IFail=0 DXMaxC= 1.59D-01 DCOld= 1.00D+10 DXMaxT= 3.00D-01 DXLimC= 3.00D+00 Rises=F
 ClnCor:  largest displacement from symmetrization is 5.10D-11 for atom     5.
 Variable       Old X    -DE/DX   Delta X   Delta X   Delta X     New X
                                 (Linear)    (Quad)   (Total)
    R1        2.64562  -0.12591   0.00000  -0.15574  -0.15574   2.48988
    R2        2.64562  -0.10716   0.00000  -0.13255  -0.13255   2.51307
    R3        2.74010   0.03670   0.00000   0.05252   0.05252   2.79262
    R4        2.05791   0.01432   0.00000   0.02206   0.02206   2.07997
    R5        2.05791   0.00792   0.00000   0.01220   0.01220   2.07011
    R6        2.05791   0.00792   0.00000   0.01220   0.01220   2.07011
    A1        1.91063   0.06868   0.00000   0.13693   0.13693   2.04756
    A2        2.46192  -0.07690   0.00000  -0.15332  -0.15332   2.30860
    A3        1.91063   0.00822   0.00000   0.01639   0.01639   1.92702
    A4        1.91063   0.01463   0.00000   0.04177   0.04169   1.95232
    A5        1.91063  -0.00199   0.00000  -0.00640  -0.00649   1.90414
    A6        1.91063  -0.00199   0.00000  -0.00640  -0.00649   1.90414
    A7        1.91063  -0.00445   0.00000  -0.01013  -0.01022   1.90041
    A8        1.91063  -0.00445   0.00000  -0.01013  -0.01022   1.90041
    A9        1.91063  -0.00174   0.00000  -0.00870  -0.00879   1.90184
    D1        0.00000   0.00000   0.00000   0.00000   0.00000   0.00000
    D2        2.09440   0.00229   0.00000   0.00925   0.00925   2.10364
    D3       -2.09440  -0.00229   0.00000  -0.00925  -0.00925  -2.10364
    D4        3.14159   0.00000   0.00000   0.00000   0.00000   3.14159
    D5       -1.04720   0.00229   0.00000   0.00925   0.00925  -1.03795
    D6        1.04720  -0.00229   0.00000  -0.00925  -0.00925   1.03795
         Item               Value     Threshold  Converged?
 Maximum Force            0.125913     0.000450     NO 
 RMS     Force            0.043642     0.000300     NO 
 Maximum Displacement     0.158983     0.001800     NO 
 RMS     Displacement     0.058022     0.001200     NO 
 Predicted change in Energy=-4.271345D-02
 Lowest energy point so far.  Saving SCF results.
 GradGradGradGradGradGradGradGradGradGradGradGradGradGradGradGradGradGrad

 Leave Link  103 at Wed Oct 14 11:16:18 2015, MaxMem=    33554432 cpu:         0.6
 (Enter /group/hpc-share/gaussian/2009D/g09/l202.exe)
                          Input orientation:                          
 ---------------------------------------------------------------------
 Center     Atomic      Atomic             Coordinates (Angstroms)
 Number     Number       Type             X           Y           Z
 ---------------------------------------------------------------------
      1          8           0       -0.072511    0.000000    0.084130
      2          6           0        0.074252    0.000000    1.393519
      3          8           0        1.316436    0.000000    1.868393
      4          6           0       -0.901703    0.000000    2.503196
      5          1           0       -1.939422    0.000000    2.136295
      6          1           0       -0.743563   -0.891648    3.119622
      7          1           0       -0.743563    0.891648    3.119622
 ---------------------------------------------------------------------
                    Distance matrix (angstroms):
                    1          2          3          4          5
     1  O    0.000000
     2  C    1.317588   0.000000
     3  O    2.261143   1.329859   0.000000
     4  C    2.557233   1.477793   2.307187   0.000000
     5  H    2.774299   2.146299   3.266861   1.100672   0.000000
     6  H    3.234124   2.107911   2.569865   1.095456   1.786630
     7  H    3.234124   2.107911   2.569865   1.095456   1.786630
                    6          7
     6  H    0.000000
     7  H    1.783295   0.000000
 Stoichiometry    C2H3O2(1-)
 Framework group  CS[SG(C2HO2),X(H2)]
 Deg. of freedom    10
 Full point group                 CS      NOp   2
 RotChk:  IX=0 Diff= 8.60D-01
 Largest Abelian subgroup         CS      NOp   2
 Largest concise Abelian subgroup CS      NOp   2
                         Standard orientation:                         
 ---------------------------------------------------------------------
 Center     Atomic      Atomic             Coordinates (Angstroms)
 Number     Number       Type             X           Y           Z
 ---------------------------------------------------------------------
      1          8           0        0.373421    1.400412    0.000000
      2          6           0        0.000000    0.136847    0.000000
      3          8           0       -1.306074   -0.113545    0.000000
      4          6           0        0.766921   -1.126364    0.000000
      5          1           0        1.852803   -0.946536    0.000000
      6          1           0        0.503448   -1.705650    0.891648
      7          1           0        0.503448   -1.705650   -0.891648
 ---------------------------------------------------------------------
 Rotational constants (GHZ):     12.2110290      9.0731510      5.3830977
 Leave Link  202 at Wed Oct 14 11:16:18 2015, MaxMem=    33554432 cpu:         0.1
 (Enter /group/hpc-share/gaussian/2009D/g09/l301.exe)
 Basis read from rwf:  (5D, 7F)
 No pseudopotential information found on rwf file.
 There are    48 symmetry adapted cartesian basis functions of A'  symmetry.
 There are    18 symmetry adapted cartesian basis functions of A"  symmetry.
 There are    44 symmetry adapted basis functions of A'  symmetry.
 There are    18 symmetry adapted basis functions of A"  symmetry.
    62 basis functions,   112 primitive gaussians,    66 cartesian basis functions
    16 alpha electrons       16 beta electrons
       nuclear repulsion energy       109.9862011131 Hartrees.
 IExCor= 1009 DFT=T Ex+Corr=PBE1PBE ExCW=0 ScaHFX=  0.250000
 ScaDFX=  0.750000  0.750000  1.000000  1.000000 ScalE2=  1.000000  1.000000
 IRadAn=      0 IRanWt=     -1 IRanGd=            0 ICorTp=0 IEmpDi=  4
 NAtoms=    7 NActive=    7 NUniq=    6 SFac= 1.36D+00 NAtFMM=   60 NAOKFM=F Big=F
 Integral buffers will be    131072 words long.
 Raffenetti 2 integral format.
 Two-electron integral symmetry is turned on.
 No density basis found on file   724.
 ------------------------------------------------------------------------------
 Polarizable Continuum Model (PCM)
 =================================
 Model                : PCM (using non-symmetric T matrix).
 Atomic radii         : UFF (Universal Force Field).
 Polarization charges : Total charges.
 Charge compensation  : None.
 Solution method      : On-the-fly selection.
 Cavity type          : Scaled VdW (van der Waals Surface) (Alpha=1.100).
 Cavity algorithm     : GePol (No added spheres)
                        Default sphere list used, NSphG=    7.
                        Lebedev-Laikov grids with approx.  5.0 points / Ang**2.
                        Smoothing algorithm: Karplus/York (Gamma=1.0000).
                        Polarization charges: spherical gaussians, with
                                              point-specific exponents (IZeta= 3).
                        Self-potential: point-specific (ISelfS= 7).
                        Self-field    : sphere-specific E.n sum rule (ISelfD= 2).
 1st derivatives      : Analytical E(r).r(x)/FMM algorithm (CHGder, D1EAlg=3).
                        Cavity 1st derivative terms included.
 Solvent              : DiethylEther, Eps=   4.240000 Eps(inf)=   1.829527
 ------------------------------------------------------------------------------
 Spheres list:
 ISph  on   Nord     Re0    Alpha      Xe            Ye            Ze
    1   O      1    1.7500  1.100      0.373421      1.400412      0.000000
    2   C      2    1.9255  1.100      0.000000      0.136847      0.000000
    3   O      3    1.7500  1.100     -1.306074     -0.113545      0.000000
    4   C      4    1.9255  1.100      0.766921     -1.126364      0.000000
    5   H      5    1.4430  1.100      1.852803     -0.946536      0.000000
    6   H      6    1.4430  1.100      0.503448     -1.705650      0.891648
    7   H      7    1.4430  1.100      0.503448     -1.705650     -0.891648
 ------------------------------------------------------------------------------
 GePol: Number of generator spheres                  =       7
 GePol: Total number of spheres                      =       7
 GePol: Number of exposed spheres                    =       7 (100.00%)
 GePol: Number of points                             =     792
 GePol: Average weight of points                     =       0.14
 GePol: Minimum weight of points                     =   0.38D-06
 GePol: Maximum weight of points                     =    0.20577
 GePol: Number of points with low weight             =      17
 GePol: Fraction of low-weight points (<1% of avg)   =       2.15%
 GePol: Cavity surface area                          =    109.082 Ang**2
 GePol: Cavity volume                                =     91.872 Ang**3
 Leave Link  301 at Wed Oct 14 11:16:18 2015, MaxMem=    33554432 cpu:         0.7
 (Enter /group/hpc-share/gaussian/2009D/g09/l302.exe)
 NPDir=0 NMtPBC=     1 NCelOv=     1 NCel=       1 NClECP=     1 NCelD=      1
         NCelK=      1 NCelE2=     1 NClLst=     1 CellRange=     0.0.
 One-electron integrals computed using PRISM.
 One-electron integral symmetry used in STVInt
 NBasis=    62 RedAO= T EigKep=  4.90D-03  NBF=    44    18
 NBsUse=    62 1.00D-06 EigRej= -1.00D+00 NBFU=    44    18
 Precomputing XC quadrature grid using
 IXCGrd= 4 IRadAn=           0 IRanWt=          -1 IRanGd=           0 AccXCQ= 0.00D+00.
 Generated NRdTot=       0 NPtTot=           0 NUsed=           0 NTot=          32
 NSgBfM=    66    66    66    66    66 MxSgAt=     7 MxSgA2=     7.
 Leave Link  302 at Wed Oct 14 11:16:18 2015, MaxMem=    33554432 cpu:         1.7
 (Enter /group/hpc-share/gaussian/2009D/g09/l303.exe)
 DipDrv:  MaxL=1.
 Leave Link  303 at Wed Oct 14 11:16:19 2015, MaxMem=    33554432 cpu:         0.3
 (Enter /group/hpc-share/gaussian/2009D/g09/l401.exe)
 Initial guess from the checkpoint file:  "acetate.chk"
 B after Tr=     0.000000    0.000000    0.000000
         Rot=    0.950718    0.000000    0.000000    0.310057 Ang=  36.13 deg.
 Guess basis will be translated and rotated to current coordinates.
 JPrj=2 DoOrth=T DoCkMO=T.
 Initial guess orbital symmetries:
       Occupied  (A') (A') (A') (A') (A') (A') (A') (A') (A") (A')
                 (A') (A') (A") (A') (A") (A')
       Virtual   (A') (A') (A') (A') (A') (A') (A') (A') (A') (A')
                 (A') (A') (A') (A') (A') (A') (A') (A') (A') (A')
                 (A') (A') (A') (A') (A') (A') (A') (A') (A') (A')
                 (A') (A") (A") (A") (A") (A") (A") (A") (A") (A")
                 (A") (A") (A") (A") (A") (A")
 The electronic state of the initial guess is 1-A'.
 Generating alternative initial guess.
 ExpMin= 1.22D-01 ExpMax= 2.27D+03 ExpMxC= 3.41D+02 IAcc=1 IRadAn=         1 AccDes= 0.00D+00
 Harris functional with IExCor= 1009 and IRadAn=       1 diagonalized for initial guess.
 HarFok:  IExCor= 1009 AccDes= 0.00D+00 IRadAn=         1 IDoV= 1 UseB2=F ITyADJ=14
 ICtDFT=  3500011 ScaDFX=  1.000000  1.000000  1.000000  1.000000
 FoFCou: FMM=F IPFlag=           0 FMFlag=      100000 FMFlg1=           0
         NFxFlg=           0 DoJE=T BraDBF=F KetDBF=T FulRan=T
         wScrn=  0.000000 ICntrl=     500 IOpCl=  0 I1Cent=   200000004 NGrid=           0
         NMat0=    1 NMatS0=      1 NMatT0=    0 NMatD0=    1 NMtDS0=    0 NMtDT0=    0
 Petite list used in FoFCou.
 Harris En= -228.325698611807    
 Leave Link  401 at Wed Oct 14 11:16:19 2015, MaxMem=    33554432 cpu:         1.6
 (Enter /group/hpc-share/gaussian/2009D/g09/l502.exe)
 Closed shell SCF:
 Using DIIS extrapolation, IDIIS=  1040.
 Integral symmetry usage will be decided dynamically.
 Keep R1 ints in memory in symmetry-blocked form, NReq=5569068.
 IVT=       32744 IEndB=       32744 NGot=    33554432 MDV=    32528432
 LenX=    32528432 LenY=    32523635
 Requested convergence on RMS density matrix=1.00D-08 within 128 cycles.
 Requested convergence on MAX density matrix=1.00D-06.
 Requested convergence on             energy=1.00D-06.
 No special actions if energy rises.
 FoFCou: FMM=F IPFlag=           0 FMFlag=           0 FMFlg1=           0
         NFxFlg=           0 DoJE=F BraDBF=F KetDBF=F FulRan=T
         wScrn=  0.000000 ICntrl=     600 IOpCl=  0 I1Cent=           0 NGrid=           0
         NMat0=    1 NMatS0=   1953 NMatT0=    0 NMatD0=    1 NMtDS0=    0 NMtDT0=    0
 Petite list used in FoFCou.

 Cycle   1  Pass 1  IDiag  1:
 Inv3:  Mode=1 IEnd=     1881792.
 Iteration    1 A*A^-1 deviation from unit magnitude is 4.33D-15 for    537.
 Iteration    1 A*A^-1 deviation from orthogonality  is 2.04D-15 for    646     72.
 Iteration    1 A^-1*A deviation from unit magnitude is 4.66D-15 for    467.
 Iteration    1 A^-1*A deviation from orthogonality  is 1.44D-15 for    782    341.
 E= -228.115589116294    
 DIIS: error= 8.35D-03 at cycle   1 NSaved=   1.
 NSaved= 1 IEnMin= 1 EnMin= -228.115589116294     IErMin= 1 ErrMin= 8.35D-03
 ErrMax= 8.35D-03  0.00D+00 EMaxC= 1.00D-01 BMatC= 8.86D-03 BMatP= 8.86D-03
 IDIUse=3 WtCom= 9.16D-01 WtEn= 8.35D-02
 Coeff-Com:  0.100D+01
 Coeff-En:   0.100D+01
 Coeff:      0.100D+01
 Gap=     0.596 Goal=   None    Shift=    0.000
 GapD=    0.596 DampG=2.000 DampE=1.000 DampFc=2.0000 IDamp=-1.
 RMSDP=3.02D-03 MaxDP=3.16D-02              OVMax= 4.15D-02

 Cycle   2  Pass 1  IDiag  1:
 E= -228.126521163394     Delta-E=       -0.010932047100 Rises=F Damp=F
 DIIS: error= 4.18D-03 at cycle   2 NSaved=   2.
 NSaved= 2 IEnMin= 2 EnMin= -228.126521163394     IErMin= 2 ErrMin= 4.18D-03
 ErrMax= 4.18D-03  0.00D+00 EMaxC= 1.00D-01 BMatC= 1.28D-03 BMatP= 8.86D-03
 IDIUse=3 WtCom= 9.58D-01 WtEn= 4.18D-02
 Coeff-Com:  0.158D+00 0.842D+00
 Coeff-En:   0.000D+00 0.100D+01
 Coeff:      0.152D+00 0.848D+00
 Gap=     0.242 Goal=   None    Shift=    0.000
 RMSDP=1.10D-03 MaxDP=1.52D-02 DE=-1.09D-02 OVMax= 1.66D-02

 Cycle   3  Pass 1  IDiag  1:
 E= -228.126379877860     Delta-E=        0.000141285533 Rises=F Damp=F
 DIIS: error= 4.22D-03 at cycle   3 NSaved=   3.
 NSaved= 3 IEnMin= 2 EnMin= -228.126521163394     IErMin= 2 ErrMin= 4.18D-03
 ErrMax= 4.22D-03  0.00D+00 EMaxC= 1.00D-01 BMatC= 1.50D-03 BMatP= 1.28D-03
 IDIUse=3 WtCom= 1.33D-01 WtEn= 8.67D-01
 Coeff-Com: -0.115D-01 0.524D+00 0.488D+00
 Coeff-En:   0.000D+00 0.530D+00 0.470D+00
 Coeff:     -0.153D-02 0.529D+00 0.473D+00
 Gap=     0.250 Goal=   None    Shift=    0.000
 RMSDP=6.34D-04 MaxDP=1.02D-02 DE= 1.41D-04 OVMax= 1.35D-02

 Cycle   4  Pass 1  IDiag  1:
 E= -228.127480043701     Delta-E=       -0.001100165841 Rises=F Damp=F
 DIIS: error= 1.12D-03 at cycle   4 NSaved=   4.
 NSaved= 4 IEnMin= 4 EnMin= -228.127480043701     IErMin= 4 ErrMin= 1.12D-03
 ErrMax= 1.12D-03  0.00D+00 EMaxC= 1.00D-01 BMatC= 9.43D-05 BMatP= 1.28D-03
 IDIUse=3 WtCom= 9.89D-01 WtEn= 1.12D-02
 Coeff-Com: -0.210D-01 0.228D+00 0.276D+00 0.517D+00
 Coeff-En:   0.000D+00 0.000D+00 0.000D+00 0.100D+01
 Coeff:     -0.207D-01 0.225D+00 0.273D+00 0.522D+00
 Gap=     0.249 Goal=   None    Shift=    0.000
 RMSDP=1.82D-04 MaxDP=1.97D-03 DE=-1.10D-03 OVMax= 4.48D-03

 Cycle   5  Pass 1  IDiag  1:
 E= -228.127549974542     Delta-E=       -0.000069930841 Rises=F Damp=F
 DIIS: error= 3.29D-04 at cycle   5 NSaved=   5.
 NSaved= 5 IEnMin= 5 EnMin= -228.127549974542     IErMin= 5 ErrMin= 3.29D-04
 ErrMax= 3.29D-04  0.00D+00 EMaxC= 1.00D-01 BMatC= 9.73D-06 BMatP= 9.43D-05
 IDIUse=3 WtCom= 9.97D-01 WtEn= 3.29D-03
 Coeff-Com: -0.102D-01 0.822D-01 0.115D+00 0.304D+00 0.510D+00
 Coeff-En:   0.000D+00 0.000D+00 0.000D+00 0.225D-01 0.978D+00
 Coeff:     -0.102D-01 0.819D-01 0.114D+00 0.303D+00 0.511D+00
 Gap=     0.249 Goal=   None    Shift=    0.000
 RMSDP=6.06D-05 MaxDP=9.27D-04 DE=-6.99D-05 OVMax= 1.45D-03

 Cycle   6  Pass 1  IDiag  1:
 E= -228.127556773221     Delta-E=       -0.000006798679 Rises=F Damp=F
 DIIS: error= 1.06D-04 at cycle   6 NSaved=   6.
 NSaved= 6 IEnMin= 6 EnMin= -228.127556773221     IErMin= 6 ErrMin= 1.06D-04
 ErrMax= 1.06D-04  0.00D+00 EMaxC= 1.00D-01 BMatC= 1.42D-06 BMatP= 9.73D-06
 IDIUse=3 WtCom= 9.99D-01 WtEn= 1.06D-03
 Coeff-Com: -0.192D-02 0.826D-02 0.196D-01 0.903D-01 0.317D+00 0.567D+00
 Coeff-En:   0.000D+00 0.000D+00 0.000D+00 0.000D+00 0.121D+00 0.879D+00
 Coeff:     -0.192D-02 0.825D-02 0.195D-01 0.902D-01 0.317D+00 0.567D+00
 Gap=     0.249 Goal=   None    Shift=    0.000
 RMSDP=1.75D-05 MaxDP=2.82D-04 DE=-6.80D-06 OVMax= 3.04D-04

 Cycle   7  Pass 1  IDiag  1:
 E= -228.127557922467     Delta-E=       -0.000001149246 Rises=F Damp=F
 DIIS: error= 1.54D-05 at cycle   7 NSaved=   7.
 NSaved= 7 IEnMin= 7 EnMin= -228.127557922467     IErMin= 7 ErrMin= 1.54D-05
 ErrMax= 1.54D-05  0.00D+00 EMaxC= 1.00D-01 BMatC= 1.92D-08 BMatP= 1.42D-06
 IDIUse=1 WtCom= 1.00D+00 WtEn= 0.00D+00
 Coeff-Com: -0.461D-04-0.270D-02-0.986D-03 0.112D-01 0.789D-01 0.181D+00
 Coeff-Com:  0.733D+00
 Coeff:     -0.461D-04-0.270D-02-0.986D-03 0.112D-01 0.789D-01 0.181D+00
 Coeff:      0.733D+00
 Gap=     0.249 Goal=   None    Shift=    0.000
 RMSDP=2.96D-06 MaxDP=5.65D-05 DE=-1.15D-06 OVMax= 4.25D-05

 Cycle   8  Pass 1  IDiag  1:
 E= -228.127557939146     Delta-E=       -0.000000016679 Rises=F Damp=F
 DIIS: error= 6.22D-06 at cycle   8 NSaved=   8.
 NSaved= 8 IEnMin= 8 EnMin= -228.127557939146     IErMin= 8 ErrMin= 6.22D-06
 ErrMax= 6.22D-06  0.00D+00 EMaxC= 1.00D-01 BMatC= 2.40D-09 BMatP= 1.92D-08
 IDIUse=1 WtCom= 1.00D+00 WtEn= 0.00D+00
 Coeff-Com:  0.871D-04-0.185D-02-0.182D-02-0.106D-02 0.147D-01 0.411D-01
 Coeff-Com:  0.321D+00 0.628D+00
 Coeff:      0.871D-04-0.185D-02-0.182D-02-0.106D-02 0.147D-01 0.411D-01
 Coeff:      0.321D+00 0.628D+00
 Gap=     0.249 Goal=   None    Shift=    0.000
 RMSDP=1.11D-06 MaxDP=2.37D-05 DE=-1.67D-08 OVMax= 1.34D-05

 Cycle   9  Pass 1  IDiag  1:
 E= -228.127557941461     Delta-E=       -0.000000002316 Rises=F Damp=F
 DIIS: error= 4.50D-07 at cycle   9 NSaved=   9.
 NSaved= 9 IEnMin= 9 EnMin= -228.127557941461     IErMin= 9 ErrMin= 4.50D-07
 ErrMax= 4.50D-07  0.00D+00 EMaxC= 1.00D-01 BMatC= 2.43D-11 BMatP= 2.40D-09
 IDIUse=1 WtCom= 1.00D+00 WtEn= 0.00D+00
 Coeff-Com:  0.441D-05 0.598D-04-0.227D-04-0.249D-03-0.176D-02-0.749D-02
 Coeff-Com: -0.220D-01 0.476D-02 0.103D+01
 Coeff:      0.441D-05 0.598D-04-0.227D-04-0.249D-03-0.176D-02-0.749D-02
 Coeff:     -0.220D-01 0.476D-02 0.103D+01
 Gap=     0.249 Goal=   None    Shift=    0.000
 RMSDP=1.70D-07 MaxDP=2.17D-06 DE=-2.32D-09 OVMax= 2.29D-06

 Cycle  10  Pass 1  IDiag  1:
 E= -228.127557941491     Delta-E=       -0.000000000029 Rises=F Damp=F
 DIIS: error= 6.64D-08 at cycle  10 NSaved=  10.
 NSaved=10 IEnMin=10 EnMin= -228.127557941491     IErMin=10 ErrMin= 6.64D-08
 ErrMax= 6.64D-08  0.00D+00 EMaxC= 1.00D-01 BMatC= 5.00D-13 BMatP= 2.43D-11
 IDIUse=1 WtCom= 1.00D+00 WtEn= 0.00D+00
 Coeff-Com: -0.520D-06 0.336D-04 0.281D-04-0.170D-04-0.332D-03-0.166D-02
 Coeff-Com: -0.664D-02-0.841D-02 0.120D+00 0.897D+00
 Coeff:     -0.520D-06 0.336D-04 0.281D-04-0.170D-04-0.332D-03-0.166D-02
 Coeff:     -0.664D-02-0.841D-02 0.120D+00 0.897D+00
 Gap=     0.249 Goal=   None    Shift=    0.000
 RMSDP=2.49D-08 MaxDP=3.87D-07 DE=-2.91D-11 OVMax= 2.67D-07

 Cycle  11  Pass 1  IDiag  1:
 E= -228.127557941489     Delta-E=        0.000000000002 Rises=F Damp=F
 DIIS: error= 8.93D-09 at cycle  11 NSaved=  11.
 NSaved=11 IEnMin=10 EnMin= -228.127557941491     IErMin=11 ErrMin= 8.93D-09
 ErrMax= 8.93D-09  0.00D+00 EMaxC= 1.00D-01 BMatC= 1.28D-14 BMatP= 5.00D-13
 IDIUse=1 WtCom= 1.00D+00 WtEn= 0.00D+00
 Coeff-Com: -0.198D-06 0.165D-05 0.323D-05 0.112D-05 0.819D-05-0.422D-04
 Coeff-Com: -0.187D-03-0.145D-02-0.145D-01 0.918D-01 0.924D+00
 Coeff:     -0.198D-06 0.165D-05 0.323D-05 0.112D-05 0.819D-05-0.422D-04
 Coeff:     -0.187D-03-0.145D-02-0.145D-01 0.918D-01 0.924D+00
 Gap=     0.249 Goal=   None    Shift=    0.000
 RMSDP=4.17D-09 MaxDP=6.36D-08 DE= 1.76D-12 OVMax= 3.91D-08

 Error on total polarization charges =  0.00443
 SCF Done:  E(RPBE1PBE) =  -228.127557941     A.U. after   11 cycles
            NFock= 11  Conv=0.42D-08     -V/T= 2.0084
 KE= 2.262311777061D+02 PE=-7.642628855416D+02 EE= 1.999179487809D+02
 Leave Link  502 at Wed Oct 14 11:16:21 2015, MaxMem=    33554432 cpu:        17.4
 (Enter /group/hpc-share/gaussian/2009D/g09/l701.exe)
 Compute integral first derivatives.
 ... and contract with generalized density number  0.
 D1PCM: PCM CHGder 1st derivatives, ID1Alg=3 FixD1E=F DoIter=F DoCFld=F I1PDM=0.
 GePol: Maximum number of non-zero 1st derivatives   =     226
 Leave Link  701 at Wed Oct 14 11:16:22 2015, MaxMem=    33554432 cpu:         3.6
 (Enter /group/hpc-share/gaussian/2009D/g09/l702.exe)
 L702 exits ... SP integral derivatives will be done elsewhere.
 Leave Link  702 at Wed Oct 14 11:16:22 2015, MaxMem=    33554432 cpu:         0.1
 (Enter /group/hpc-share/gaussian/2009D/g09/l703.exe)
 Compute integral first derivatives, UseDBF=F ICtDFT=           0.
 Integral derivatives from FoFJK, PRISM(SPDF).
 Calling FoFJK, ICntrl=      2127 FMM=F ISym2X=1 I1Cent= 0 IOpClX= 0 NMat=1 NMatS=1 NMatT=0.
 FoFJK:  IHMeth= 1 ICntrl=    2127 DoSepK=F KAlg= 0 I1Cent=   0 FoldK=F
 IRaf=         0 NMat=   1 IRICut=       1 DoRegI=T DoRafI=F ISym2E= 1.
 FoFCou: FMM=F IPFlag=           0 FMFlag=      100000 FMFlg1=         800
         NFxFlg=           0 DoJE=F BraDBF=F KetDBF=F FulRan=T
         wScrn=  0.000000 ICntrl=    2127 IOpCl=  0 I1Cent=           0 NGrid=           0
         NMat0=    1 NMatS0=      1 NMatT0=    0 NMatD0=    1 NMtDS0=    0 NMtDT0=    0
 Petite list used in FoFCou.
 Leave Link  703 at Wed Oct 14 11:16:22 2015, MaxMem=    33554432 cpu:         2.6
 (Enter /group/hpc-share/gaussian/2009D/g09/l716.exe)
 Dipole        = 1.17806659D+00-1.56455703D+00 0.00000000D+00
 ***** Axes restored to original set *****
 -------------------------------------------------------------------
 Center     Atomic                   Forces (Hartrees/Bohr)
 Number     Number              X              Y              Z
 -------------------------------------------------------------------
      1        8          -0.030435760    0.000000000    0.082086090
      2        6           0.133673140    0.000000000   -0.070159520
      3        8          -0.065866138    0.000000000   -0.012963104
      4        6          -0.032761222    0.000000000   -0.008826164
      5        1          -0.006359307    0.000000000    0.002161517
      6        1           0.000874643   -0.002481749    0.003850590
      7        1           0.000874643    0.002481749    0.003850590
 -------------------------------------------------------------------
 Cartesian Forces:  Max     0.133673140 RMS     0.041519664
 Leave Link  716 at Wed Oct 14 11:16:22 2015, MaxMem=    33554432 cpu:         0.2
 (Enter /group/hpc-share/gaussian/2009D/g09/l103.exe)

 GradGradGradGradGradGradGradGradGradGradGradGradGradGradGradGradGradGrad
 Berny optimization.
 Using GEDIIS/GDIIS optimizer.
 FormGI is forming the generalized inverse of G from B-inverse, IUseBI=4.
 Internal  Forces:  Max     0.078216112 RMS     0.027872125
 Search for a local minimum.
 Step number   2 out of a maximum of   31
 All quantities printed in internal units (Hartrees-Bohrs-Radians)
 RMS Force = .27872D-01 SwitMx=.10000D-02 MixMth= 1
 Mixed Optimization -- RFO/linear search
 Update second derivatives using D2CorX and points    1    2
 DE= -4.90D-02 DEPred=-4.27D-02 R= 1.15D+00
 TightC=F SS=  1.41D+00  RLast= 3.01D-01 DXNew= 5.0454D-01 9.0169D-01
 Trust test= 1.15D+00 RLast= 3.01D-01 DXMaxT set to 5.05D-01
 ITU=  1  0
 Use linear search instead of GDIIS.
     Eigenvalues ---    0.01427   0.01427   0.07642   0.07966   0.15956
     Eigenvalues ---    0.16000   0.16154   0.18861   0.25922   0.34882
     Eigenvalues ---    0.34928   0.35139   0.36454   0.40401   0.45623
 RFO step:  Lambda=-2.55527223D-03 EMin= 1.42735158D-02
 Quartic linear search produced a step of  1.03101.
 Iteration  1 RMS(Cart)=  0.08779848 RMS(Int)=  0.00688798
 Iteration  2 RMS(Cart)=  0.00649550 RMS(Int)=  0.00008248
 Iteration  3 RMS(Cart)=  0.00003649 RMS(Int)=  0.00007803
 Iteration  4 RMS(Cart)=  0.00000000 RMS(Int)=  0.00007803
 ITry= 1 IFail=0 DXMaxC= 2.50D-01 DCOld= 1.00D+10 DXMaxT= 5.05D-01 DXLimC= 3.00D+00 Rises=F
 ClnCor:  largest displacement from symmetrization is 6.51D-10 for atom     5.
 Variable       Old X    -DE/DX   Delta X   Delta X   Delta X     New X
                                 (Linear)    (Quad)   (Total)
    R1        2.48988  -0.07822  -0.16057  -0.01297  -0.17353   2.31635
    R2        2.51307  -0.06611  -0.13666  -0.00900  -0.14566   2.36741
    R3        2.79262   0.02545   0.05415   0.01519   0.06934   2.86196
    R4        2.07997   0.00531   0.02274  -0.02100   0.00174   2.08170
    R5        2.07011   0.00429   0.01258  -0.00378   0.00880   2.07892
    R6        2.07011   0.00429   0.01258  -0.00378   0.00880   2.07892
    A1        2.04756   0.04224   0.14118  -0.02748   0.11369   2.16126
    A2        2.30860  -0.05558  -0.15807  -0.03589  -0.19396   2.11464
    A3        1.92702   0.01335   0.01689   0.06337   0.08027   2.00729
    A4        1.95232   0.00636   0.04298  -0.05993  -0.01699   1.93532
    A5        1.90414  -0.00011  -0.00670   0.02052   0.01369   1.91783
    A6        1.90414  -0.00011  -0.00670   0.02052   0.01369   1.91783
    A7        1.90041  -0.00209  -0.01054   0.00834  -0.00224   1.89817
    A8        1.90041  -0.00209  -0.01054   0.00834  -0.00224   1.89817
    A9        1.90184  -0.00215  -0.00906   0.00334  -0.00596   1.89588
    D1        0.00000   0.00000   0.00000   0.00000   0.00000   0.00000
    D2        2.10364   0.00136   0.00953  -0.01407  -0.00462   2.09902
    D3       -2.10364  -0.00136  -0.00953   0.01407   0.00462  -2.09902
    D4        3.14159   0.00000   0.00000   0.00000   0.00000   3.14159
    D5       -1.03795   0.00136   0.00953  -0.01407  -0.00462  -1.04257
    D6        1.03795  -0.00136  -0.00953   0.01407   0.00462   1.04257
         Item               Value     Threshold  Converged?
 Maximum Force            0.078216     0.000450     NO 
 RMS     Force            0.027872     0.000300     NO 
 Maximum Displacement     0.250016     0.001800     NO 
 RMS     Displacement     0.087966     0.001200     NO 
 Predicted change in Energy=-2.917718D-02
 Lowest energy point so far.  Saving SCF results.
 GradGradGradGradGradGradGradGradGradGradGradGradGradGradGradGradGradGrad

 Leave Link  103 at Wed Oct 14 11:16:23 2015, MaxMem=    33554432 cpu:         0.0
 (Enter /group/hpc-share/gaussian/2009D/g09/l202.exe)
                          Input orientation:                          
 ---------------------------------------------------------------------
 Center     Atomic      Atomic             Coordinates (Angstroms)
 Number     Number       Type             X           Y           Z
 ---------------------------------------------------------------------
      1          8           0       -0.159967    0.000000    0.216433
      2          6           0        0.157003    0.000000    1.400500
      3          8           0        1.342633    0.000000    1.805145
      4          6           0       -0.892256    0.000000    2.492615
      5          1           0       -1.906518    0.000000    2.062763
      6          1           0       -0.775485   -0.893531    3.123661
      7          1           0       -0.775485    0.893531    3.123661
 ---------------------------------------------------------------------
                    Distance matrix (angstroms):
                    1          2          3          4          5
     1  O    0.000000
     2  C    1.225759   0.000000
     3  O    2.186736   1.252779   0.000000
     4  C    2.391078   1.514483   2.338235   0.000000
     5  H    2.541531   2.167190   3.259348   1.101590   0.000000
     6  H    3.103101   2.153419   2.650151   1.100115   1.789731
[...]
 IDIUse=1 WtCom= 1.00D+00 WtEn= 0.00D+00
 Coeff-Com: -0.102D-02 0.566D-02 0.127D-01 0.129D+00 0.211D+00 0.643D+00
 Coeff:     -0.102D-02 0.566D-02 0.127D-01 0.129D+00 0.211D+00 0.643D+00
 Gap=     0.294 Goal=   None    Shift=    0.000
 RMSDP=1.10D-07 MaxDP=1.29D-06 DE=-7.09D-10 OVMax= 2.27D-06

 Cycle   7  Pass 1  IDiag  1:
 E= -228.152829620988     Delta-E=       -0.000000000026 Rises=F Damp=F
 DIIS: error= 2.06D-07 at cycle   7 NSaved=   7.
 NSaved= 7 IEnMin= 7 EnMin= -228.152829620988     IErMin= 7 ErrMin= 2.06D-07
 ErrMax= 2.06D-07  0.00D+00 EMaxC= 1.00D-01 BMatC= 3.50D-12 BMatP= 3.45D-11
 IDIUse=1 WtCom= 1.00D+00 WtEn= 0.00D+00
 Coeff-Com:  0.895D-04-0.320D-02-0.131D-02 0.151D-01 0.509D-01 0.314D+00
 Coeff-Com:  0.625D+00
 Coeff:      0.895D-04-0.320D-02-0.131D-02 0.151D-01 0.509D-01 0.314D+00
 Coeff:      0.625D+00
 Gap=     0.294 Goal=   None    Shift=    0.000
 RMSDP=2.89D-08 MaxDP=4.90D-07 DE=-2.58D-11 OVMax= 3.75D-07

 Cycle   8  Pass 1  IDiag  1:
 E= -228.152829620991     Delta-E=       -0.000000000003 Rises=F Damp=F
 DIIS: error= 1.66D-08 at cycle   8 NSaved=   8.
 NSaved= 8 IEnMin= 8 EnMin= -228.152829620991     IErMin= 8 ErrMin= 1.66D-08
 ErrMax= 1.66D-08  0.00D+00 EMaxC= 1.00D-01 BMatC= 3.11D-14 BMatP= 3.50D-12
 IDIUse=1 WtCom= 1.00D+00 WtEn= 0.00D+00
 Coeff-Com:  0.405D-04-0.926D-03-0.646D-03 0.107D-02 0.687D-02 0.704D-01
 Coeff-Com:  0.146D+00 0.777D+00
 Coeff:      0.405D-04-0.926D-03-0.646D-03 0.107D-02 0.687D-02 0.704D-01
 Coeff:      0.146D+00 0.777D+00
 Gap=     0.294 Goal=   None    Shift=    0.000
 RMSDP=5.33D-09 MaxDP=1.05D-07 DE=-2.84D-12 OVMax= 5.71D-08

 Error on total polarization charges =  0.00500
 SCF Done:  E(RPBE1PBE) =  -228.152829621     A.U. after    8 cycles
            NFock=  8  Conv=0.53D-08     -V/T= 2.0074
 KE= 2.264663183515D+02 PE=-7.683298357982D+02 EE= 2.017335213661D+02
 Leave Link  502 at Wed Oct 14 11:16:44 2015, MaxMem=    33554432 cpu:        15.9
 (Enter /group/hpc-share/gaussian/2009D/g09/l701.exe)
 Compute integral first derivatives.
 ... and contract with generalized density number  0.
 D1PCM: PCM CHGder 1st derivatives, ID1Alg=3 FixD1E=F DoIter=F DoCFld=F I1PDM=0.
 GePol: Maximum number of non-zero 1st derivatives   =     231
 Leave Link  701 at Wed Oct 14 11:16:45 2015, MaxMem=    33554432 cpu:         3.9
 (Enter /group/hpc-share/gaussian/2009D/g09/l702.exe)
 L702 exits ... SP integral derivatives will be done elsewhere.
 Leave Link  702 at Wed Oct 14 11:16:45 2015, MaxMem=    33554432 cpu:         0.1
 (Enter /group/hpc-share/gaussian/2009D/g09/l703.exe)
 Compute integral first derivatives, UseDBF=F ICtDFT=           0.
 Integral derivatives from FoFJK, PRISM(SPDF).
 Calling FoFJK, ICntrl=      2127 FMM=F ISym2X=1 I1Cent= 0 IOpClX= 0 NMat=1 NMatS=1 NMatT=0.
 FoFJK:  IHMeth= 1 ICntrl=    2127 DoSepK=F KAlg= 0 I1Cent=   0 FoldK=F
 IRaf=         0 NMat=   1 IRICut=       1 DoRegI=T DoRafI=F ISym2E= 1.
 FoFCou: FMM=F IPFlag=           0 FMFlag=      100000 FMFlg1=         800
         NFxFlg=           0 DoJE=F BraDBF=F KetDBF=F FulRan=T
         wScrn=  0.000000 ICntrl=    2127 IOpCl=  0 I1Cent=           0 NGrid=           0
         NMat0=    1 NMatS0=      1 NMatT0=    0 NMatD0=    1 NMtDS0=    0 NMtDT0=    0
 Petite list used in FoFCou.
 Leave Link  703 at Wed Oct 14 11:16:45 2015, MaxMem=    33554432 cpu:         2.1
 (Enter /group/hpc-share/gaussian/2009D/g09/l716.exe)
 Dipole        = 4.09189415D-02-1.53206050D+00 2.22044605D-16
 ***** Axes restored to original set *****
 -------------------------------------------------------------------
 Center     Atomic                   Forces (Hartrees/Bohr)
 Number     Number              X              Y              Z
 -------------------------------------------------------------------
      1        8           0.000068953    0.000000000   -0.000048453
      2        6          -0.000064657    0.000000000    0.000032868
      3        8           0.000196005    0.000000000    0.000142954
      4        6          -0.000098671    0.000000000    0.000139305
      5        1          -0.000001845    0.000000000   -0.000091762
      6        1          -0.000049892   -0.000003752   -0.000087456
      7        1          -0.000049892    0.000003752   -0.000087456
 -------------------------------------------------------------------
 Cartesian Forces:  Max     0.000196005 RMS     0.000078403
 Leave Link  716 at Wed Oct 14 11:16:45 2015, MaxMem=    33554432 cpu:         0.2
 (Enter /group/hpc-share/gaussian/2009D/g09/l103.exe)

 GradGradGradGradGradGradGradGradGradGradGradGradGradGradGradGradGradGrad
 Berny optimization.
 Using GEDIIS/GDIIS optimizer.
 FormGI is forming the generalized inverse of G from B-inverse, IUseBI=4.
 Internal  Forces:  Max     0.000189701 RMS     0.000053196
 Search for a local minimum.
 Step number   7 out of a maximum of   31
 All quantities printed in internal units (Hartrees-Bohrs-Radians)
 RMS Force = .53196D-04 SwitMx=.10000D-02 MixMth= 2
 Mixed Optimization -- En-DIIS/RFO-DIIS
 Swapping is turned off.
 Update second derivatives using D2CorX and points    2    3    4    5    6
                                                      7
 DE= -3.18D-06 DEPred=-2.13D-06 R= 1.49D+00
 TightC=F SS=  1.41D+00  RLast= 5.30D-03 DXNew= 1.4270D+00 1.5896D-02
 Trust test= 1.49D+00 RLast= 5.30D-03 DXMaxT set to 8.49D-01
 ITU=  1  1  1  1  1  1  0
     Eigenvalues ---    0.01427   0.01427   0.07060   0.07429   0.14673
     Eigenvalues ---    0.16000   0.16228   0.21373   0.25488   0.34159
     Eigenvalues ---    0.34928   0.34966   0.36184   0.61134   0.69414
 En-DIIS/RFO-DIIS IScMMF=        0 using points:     7    6    5
 RFO step:  Lambda=-9.08021182D-08.
 NNeg= 0 NP= 3 Switch=  2.50D-03 Rises=F DC=  2.65D-05 SmlDif=  1.00D-05
 RMS Error=  0.8664290542D-04 NUsed= 3 EDIIS=F
 DidBck=F Rises=F RFO-DIIS coefs:    0.95882    0.05374   -0.01256
 Iteration  1 RMS(Cart)=  0.00016659 RMS(Int)=  0.00000012
 Iteration  2 RMS(Cart)=  0.00000003 RMS(Int)=  0.00000012
 ITry= 1 IFail=0 DXMaxC= 3.23D-04 DCOld= 1.00D+10 DXMaxT= 8.49D-01 DXLimC= 3.00D+00 Rises=F
 ClnCor:  largest displacement from symmetrization is 5.18D-12 for atom     5.
 Variable       Old X    -DE/DX   Delta X   Delta X   Delta X     New X
                                 (Linear)    (Quad)   (Total)
    R1        2.35924   0.00007  -0.00006   0.00015   0.00009   2.35933
    R2        2.36213   0.00019   0.00008   0.00020   0.00028   2.36241
    R3        2.93635   0.00005   0.00001   0.00014   0.00015   2.93650
    R4        2.08626   0.00001   0.00001   0.00000   0.00001   2.08627
    R5        2.09044  -0.00004   0.00001  -0.00011  -0.00010   2.09034
    R6        2.09044  -0.00004   0.00001  -0.00011  -0.00010   2.09034
    A1        2.23481  -0.00001  -0.00007   0.00003  -0.00004   2.23477
    A2        2.04092  -0.00003  -0.00001   0.00000  -0.00002   2.04090
    A3        2.00745   0.00004   0.00008  -0.00003   0.00006   2.00751
    A4        1.96485   0.00000   0.00006  -0.00014  -0.00008   1.96476
    A5        1.91613  -0.00005   0.00001  -0.00030  -0.00029   1.91583
    A6        1.91613  -0.00005   0.00001  -0.00030  -0.00029   1.91583
    A7        1.90422   0.00002  -0.00003   0.00012   0.00009   1.90431
    A8        1.90422   0.00002  -0.00003   0.00012   0.00009   1.90431
    A9        1.85500   0.00007  -0.00003   0.00055   0.00053   1.85552
    D1        0.00000   0.00000   0.00000   0.00000   0.00000   0.00000
    D2        2.12500  -0.00002   0.00001  -0.00016  -0.00015   2.12485
    D3       -2.12500   0.00002  -0.00001   0.00016   0.00015  -2.12485
    D4        3.14159   0.00000   0.00000   0.00000   0.00000   3.14159
    D5       -1.01660  -0.00002   0.00001  -0.00016  -0.00015  -1.01674
    D6        1.01660   0.00002  -0.00001   0.00016   0.00015   1.01674
         Item               Value     Threshold  Converged?
 Maximum Force            0.000190     0.000450     YES
 RMS     Force            0.000053     0.000300     YES
 Maximum Displacement     0.000323     0.001800     YES
 RMS     Displacement     0.000167     0.001200     YES
 Predicted change in Energy=-7.880558D-08
 Optimization completed.
    -- Stationary point found.
                           ----------------------------
                           !   Optimized Parameters   !
                           ! (Angstroms and Degrees)  !
 --------------------------                            --------------------------
 ! Name  Definition              Value          Derivative Info.                !
 --------------------------------------------------------------------------------
 ! R1    R(1,2)                  1.2485         -DE/DX =    0.0001              !
 ! R2    R(2,3)                  1.25           -DE/DX =    0.0002              !
 ! R3    R(2,4)                  1.5538         -DE/DX =    0.0001              !
 ! R4    R(4,5)                  1.104          -DE/DX =    0.0                 !
 ! R5    R(4,6)                  1.1062         -DE/DX =    0.0                 !
 ! R6    R(4,7)                  1.1062         -DE/DX =    0.0                 !
 ! A1    A(1,2,3)              128.0454         -DE/DX =    0.0                 !
 ! A2    A(1,2,4)              116.936          -DE/DX =    0.0                 !
 ! A3    A(3,2,4)              115.0186         -DE/DX =    0.0                 !
 ! A4    A(2,4,5)              112.5775         -DE/DX =    0.0                 !
 ! A5    A(2,4,6)              109.7859         -DE/DX =    0.0                 !
 ! A6    A(2,4,7)              109.7859         -DE/DX =    0.0                 !
 ! A7    A(5,4,6)              109.1037         -DE/DX =    0.0                 !
 ! A8    A(5,4,7)              109.1037         -DE/DX =    0.0                 !
 ! A9    A(6,4,7)              106.2835         -DE/DX =    0.0001              !
 ! D1    D(1,2,4,5)              0.0            -DE/DX =    0.0                 !
 ! D2    D(1,2,4,6)            121.7533         -DE/DX =    0.0                 !
 ! D3    D(1,2,4,7)           -121.7533         -DE/DX =    0.0                 !
 ! D4    D(3,2,4,5)            180.0            -DE/DX =    0.0                 !
 ! D5    D(3,2,4,6)            -58.2467         -DE/DX =    0.0                 !
 ! D6    D(3,2,4,7)             58.2467         -DE/DX =    0.0                 !
 --------------------------------------------------------------------------------
 Lowest energy point so far.  Saving SCF results.
 GradGradGradGradGradGradGradGradGradGradGradGradGradGradGradGradGradGrad

 Largest change from initial coordinates is atom    5       1.986 Angstoms.
 Leave Link  103 at Wed Oct 14 11:16:45 2015, MaxMem=    33554432 cpu:         0.0
 (Enter /group/hpc-share/gaussian/2009D/g09/l202.exe)
                          Input orientation:                          
 ---------------------------------------------------------------------
 Center     Atomic      Atomic             Coordinates (Angstroms)
 Number     Number       Type             X           Y           Z
 ---------------------------------------------------------------------
      1          8           0       -0.188685    0.000000    0.200021
      2          6           0        0.196919    0.000000    1.387437
      3          8           0        1.371114    0.000000    1.816077
      4          6           0       -0.903221    0.000000    2.484769
      5          1           0       -1.923219    0.000000    2.062362
      6          1           0       -0.781492   -0.885105    3.137056
      7          1           0       -0.781492    0.885105    3.137056
 ---------------------------------------------------------------------
                    Distance matrix (angstroms):
                    1          2          3          4          5
     1  O    0.000000
     2  C    1.248457   0.000000
     3  O    2.246021   1.249987   0.000000
     4  C    2.393875   1.553849   2.370601   0.000000
     5  H    2.544979   2.224974   3.303526   1.104003   0.000000
     6  H    3.124260   2.191316   2.676212   1.106213   1.800533
     7  H    3.124260   2.191316   2.676212   1.106213   1.800533
                    6          7
     6  H    0.000000
     7  H    1.770211   0.000000
 Stoichiometry    C2H3O2(1-)
 Framework group  CS[SG(C2HO2),X(H2)]
 Deg. of freedom    10
 Full point group                 CS      NOp   2
 RotChk:  IX=0 Diff= 3.42D-16
 Largest Abelian subgroup         CS      NOp   2
 Largest concise Abelian subgroup CS      NOp   2
                         Standard orientation:                         
 ---------------------------------------------------------------------
 Center     Atomic      Atomic             Coordinates (Angstroms)
 Number     Number       Type             X           Y           Z
 ---------------------------------------------------------------------
      1          8           0        1.091654    0.812472    0.000000
      2          6           0        0.000000    0.206718    0.000000
      3          8           0       -1.151225    0.693698    0.000000
      4          6           0        0.056660   -1.346098    0.000000
      5          1           0        1.090832   -1.732507    0.000000
      6          1           0       -0.477112   -1.740284    0.885105
      7          1           0       -0.477112   -1.740284   -0.885105
 ---------------------------------------------------------------------
 Rotational constants (GHZ):     11.6114325      9.9524385      5.5447495
 Leave Link  202 at Wed Oct 14 11:16:45 2015, MaxMem=    33554432 cpu:         0.0
 (Enter /group/hpc-share/gaussian/2009D/g09/l601.exe)
 Copying SCF densities to generalized density rwf, IOpCl= 0 IROHF=0.

 **********************************************************************

            Population analysis using the SCF density.

 **********************************************************************

 Orbital symmetries:
       Occupied  (A') (A') (A') (A') (A') (A') (A') (A') (A") (A')
                 (A') (A') (A") (A") (A') (A')
       Virtual   (A') (A") (A') (A") (A') (A') (A') (A") (A') (A')
                 (A") (A') (A') (A') (A") (A') (A') (A') (A') (A')
                 (A") (A') (A") (A') (A') (A") (A') (A") (A') (A')
                 (A") (A') (A") (A') (A') (A') (A") (A') (A") (A')
                 (A") (A') (A") (A') (A') (A')
 The electronic state is 1-A'.
 Alpha  occ. eigenvalues --  -19.05812 -19.05559 -10.22917 -10.15482  -0.95203
 Alpha  occ. eigenvalues --   -0.86109  -0.65727  -0.42887  -0.37592  -0.36563
 Alpha  occ. eigenvalues --   -0.35657  -0.31565  -0.29431  -0.17589  -0.16460
 Alpha  occ. eigenvalues --   -0.15737
 Alpha virt. eigenvalues --    0.13636   0.14303   0.19455   0.21823   0.30267
 Alpha virt. eigenvalues --    0.35423   0.43824   0.53690   0.61269   0.63631
 Alpha virt. eigenvalues --    0.63639   0.66627   0.73079   0.75257   0.77518
 Alpha virt. eigenvalues --    0.77691   0.79404   0.92139   1.01557   1.05091
 Alpha virt. eigenvalues --    1.11398   1.22032   1.22875   1.25719   1.50865
 Alpha virt. eigenvalues --    1.53973   1.67860   1.72089   1.84943   1.87583
 Alpha virt. eigenvalues --    2.08566   2.13163   2.24577   2.26364   2.33176
 Alpha virt. eigenvalues --    2.50127   2.77267   2.79090   2.80449   2.86737
 Alpha virt. eigenvalues --    3.10673   3.24778   3.37567   3.47936   3.69906
 Alpha virt. eigenvalues --    3.80425
          Condensed to atoms (all electrons):
               1          2          3          4          5          6
     1  O    8.071338   0.639589  -0.095704  -0.167781   0.020734   0.003959
     2  C    0.639589   4.428299   0.606445   0.233485   0.004928  -0.000173
     3  O   -0.095704   0.606445   8.125991  -0.176167   0.008286   0.009562
     4  C   -0.167781   0.233485  -0.176167   5.599677   0.276048   0.317459
     5  H    0.020734   0.004928   0.008286   0.276048   0.641445  -0.015748
     6  H    0.003959  -0.000173   0.009562   0.317459  -0.015748   0.603773
     7  H    0.003959  -0.000173   0.009562   0.317459  -0.015748  -0.017128
               7
     1  O    0.003959
     2  C   -0.000173
     3  O    0.009562
     4  C    0.317459
     5  H   -0.015748
     6  H   -0.017128
     7  H    0.603773
 Mulliken charges:
               1
     1  O   -0.476095
     2  C    0.087600
     3  O   -0.487975
     4  C   -0.400179
     5  H    0.080055
     6  H    0.098297
     7  H    0.098297
 Sum of Mulliken charges =  -1.00000
 Mulliken charges with hydrogens summed into heavy atoms:
               1
     1  O   -0.476095
     2  C    0.087600
     3  O   -0.487975
     4  C   -0.123531
 Electronic spatial extent (au):  <R**2>=            253.6098
 Charge=             -1.0000 electrons
 Dipole moment (field-independent basis, Debye):
    X=              0.1040    Y=             -3.8941    Z=              0.0000  Tot=              3.8955
 Quadrupole moment (field-independent basis, Debye-Ang):
   XX=            -33.5810   YY=            -30.2439   ZZ=            -24.2315
   XY=             -0.0291   XZ=              0.0000   YZ=              0.0000
 Traceless Quadrupole moment (field-independent basis, Debye-Ang):
   XX=             -4.2289   YY=             -0.8918   ZZ=              5.1207
   XY=             -0.0291   XZ=              0.0000   YZ=              0.0000
 Octapole moment (field-independent basis, Debye-Ang**2):
  XXX=              0.7710  YYY=              5.2250  ZZZ=              0.0000  XYY=             -0.9797
  XXY=             -4.9231  XXZ=              0.0000  XZZ=             -0.4500  YZZ=              1.5989
  YYZ=              0.0000  XYZ=              0.0000
 Hexadecapole moment (field-independent basis, Debye-Ang**3):
 XXXX=           -131.4201 YYYY=           -183.5100 ZZZZ=            -28.6741 XXXY=             -0.0476
 XXXZ=              0.0000 YYYX=              0.7024 YYYZ=              0.0000 ZZZX=              0.0000
 ZZZY=              0.0000 XXYY=            -52.7939 XXZZ=            -24.7350 YYZZ=            -32.8061
 XXYZ=              0.0000 YYXZ=              0.0000 ZZXY=              0.9211
 N-N= 1.119771664596D+02 E-N=-7.683298383452D+02  KE= 2.264663183515D+02
 Symmetry A'   KE= 2.166775764010D+02
 Symmetry A"   KE= 9.788741950541D+00
 No NMR shielding tensors so no spin-rotation constants.
 Leave Link  601 at Wed Oct 14 11:16:46 2015, MaxMem=    33554432 cpu:         1.4
 (Enter /group/hpc-share/gaussian/2009D/g09/l9999.exe)
 B after Tr=     0.127156    0.000000   -0.048640
         Rot=    0.999747    0.000000    0.022511    0.000000 Ang=   2.58 deg.
 Final structure in terms of initial Z-matrix:
 O
 C,1,co2
 O,2,oc3,1,oco3
 C,2,cc4,3,cco4,1,dih4,0
 H,4,hc5,2,hcc5,3,dih5,0
 H,4,hc6,2,hcc6,5,dih6,0
 H,4,hc7,2,hcc7,5,dih7,0
      Variables:
 co2=1.24845729
 oc3=1.24998688
 oco3=128.04542755
 cc4=1.55384907
 cco4=115.01856959
 dih4=180.
 hc5=1.10400342
 hcc5=112.57748623
 dih5=180.
 hc6=1.10621282
 hcc6=109.78594453
 dih6=121.75330672
 hc7=1.10621282
 hcc7=109.78594453
 dih7=-121.75330672
 1\1\GINC-HPC-CN12\FOpt\RPBE1PBE\Gen\C2H3O2(1-)\6498IVANOVM\14-Oct-2015
 \0\\#P PBE1PBE/gen scrf(pcm,solvent=diethylether) scf(tight) opt\\acet
 ate\\-1,1\O,-0.2579982403,0.,0.2009816511\C,0.1276058365,0.,1.38839695
 07\O,1.3018012149,0.,1.8170371357\C,-0.9725339544,0.,2.4857298019\H,-1
 .9925318176,0.,2.0633225253\H,-0.8508045457,-0.8851053396,3.1380160019
 \H,-0.8508045457,0.8851053396,3.1380160019\\Version=EM64L-G09RevD.01\S
 tate=1-A'\HF=-228.1528296\RMSD=5.330e-09\RMSF=7.840e-05\Dipole=-1.0744
 739,0.,1.0928813\Quadrupole=-1.9692243,3.8070837,-1.8378595,0.,-1.2389
 945,0.\PG=CS [SG(C2H1O2),X(H2)]\\@


 We're simply so accustomed to the marvels of everyday thought
 that we never wonder about it.
 -- Marvin Minsky in "Why people think computers are smart"
 Job cpu time:       0 days  0 hours  3 minutes 30.5 seconds.
 File lengths (MBytes):  RWF=     17 Int=      0 D2E=      0 Chk=      3 Scr=      1
 Normal termination of Gaussian 09 at Wed Oct 14 11:16:46 2015.
