 Entering Gaussian System, Link 0=g09
 Input=acetate.com
 Output=acetate.log
 AtFile(1): acetate.zmat
             o
             c   1 co2
             o    2 oc3         1 oco3
             c    2 cc4         3 cco4          1 dih4
             h    4 hc5         2 hcc5          3 dih5
             h    4 hc6         2 hcc6          5 dih6
             h    4 hc7         2 hcc7          5 dih7
            
            co2         1.400000
            oc3         1.400000
            oco3        109.471
            cc4         1.450000
            cco4        109.471
            dih4        180.000
            hc5         1.089000
            hcc5        109.471
            dih5        180.000
            hc6         1.089000
            hcc6        109.471
            dih6        120.000
            hc7         1.089000
            hcc7        109.471
            dih7        240.000
 AtFile(1): /home/MARQNET/talipovm/basis-library/def2-SV(P)+d.gbs
            !  Def2-SV(P)  EMSL  Basis Set Exchange Library   3/29/11 8:36 AM
            ! Elements                             References
            ! --------                             ----------
            ! H He Li Be B C N O F Ne Na Mg Al Si P S Cl Ar K Ca Sc Ti V Cr Mn Fe Co Ni Cu Zn Ga Ge As Se Br Kr Rb Sr Y Zr Nb Mo Tc Ru Rh Pd Ag Cd In Sn Sb Te I Xe Cs Ba La Hf Ta W Re Os Ir Pt Au Hg Tl Pb Bi Po At Rn : F. Weigend and R. Ahlrichs, Phys. Chem. Chem. Phys., Balanced basis sets of split valence, triple zeta valence and quadruple zeta valence
            ! quality for H to Rn: Design and assessment of accuracy 7, 3297 (2005).
            !
            -H     0
            S   3   1.00
                 13.0107010              0.19682158E-01
                  1.9622572              0.13796524
                  0.44453796             0.47831935
            S   1   1.00
                  0.12194962             1.0000000
            ****
            -B     0
            S   5   1.00
                839.31830086            -0.55929201074E-02
                126.26464843            -0.41565520771E-01
                 28.620600763           -0.18299816983
                  7.8793722710          -0.46540391866
                  2.4088857172          -0.44173884791
            S   1   1.00
                  0.25105109036          1.0000000
            S   1   1.00
                  0.83648866069E-01            1.0000000
            P   3   1.00
                  6.0332223619          -0.35603672456E-01
                  1.2499157866          -0.19895775769
                  0.33871676350         -0.50850202618
            P   1   1.00
                  0.96415632351E-01            1.0000000
            D   1   1.00
                  0.5000000              1.0000000
            ****
            -C     0
            S   5   1.00
               1238.4016938              0.54568832082E-02
                186.29004992             0.40638409211E-01
                 42.251176346            0.18025593888
                 11.676557932            0.46315121755
                  3.5930506482           0.44087173314
            S   1   1.00
                  0.40245147363          1.0000000
            S   1   1.00
                  0.13090182668          1.0000000
            P   3   1.00
                  9.4680970621           0.38387871728E-01
                  2.0103545142           0.21117025112
                  0.54771004707          0.51328172114
            P   1   1.00
                  0.15268613795          1.0000000
            D   1   1.00
                  0.8000000              1.0000000
            ****
            -N     0
            S   5   1.00
               1712.8415853             -0.53934125305E-02
                257.64812677            -0.40221581118E-01
                 58.458245853           -0.17931144990
                 16.198367905           -0.46376317823
                  5.0052600809          -0.44171422662
            S   1   1.00
                  0.58731856571          1.0000000
            S   1   1.00
                  0.18764592253          1.0000000
            P   3   1.00
                 13.571470233           -0.40072398852E-01
                  2.9257372874          -0.21807045028
                  0.79927750754         -0.51294466049
            P   1   1.00
                  0.21954348034          1.0000000
            D   1   1.00
                  1.0000000              1.0000000
            ****
            -O     0
            S   5   1.00
               2266.1767785             -0.53431809926E-02
                340.87010191            -0.39890039230E-01
                 77.363135167           -0.17853911985
                 21.479644940           -0.46427684959
                  6.6589433124          -0.44309745172
            S   1   1.00
                  0.80975975668          1.0000000
            S   1   1.00
                  0.25530772234          1.0000000
            P   3   1.00
                 17.721504317            0.43394573193E-01
                  3.8635505440           0.23094120765
                  1.0480920883           0.51375311064
            P   1   1.00
                  0.27641544411          1.0000000
            D   1   1.00
                  1.2000000              1.0000000
            ****
            -F     0
            S   5   1.00
               2894.8325990             -0.53408255515E-02
                435.41939120            -0.39904258866E-01
                 98.843328866           -0.17912768038
                 27.485198001           -0.46758090825
                  8.5405498171          -0.44653131020
            S   1   1.00
                  1.0654578038           1.0000000
            S   1   1.00
                  0.33247346748          1.0000000
            P   3   1.00
                 22.696633924           -0.45212874436E-01
                  4.9872339257          -0.23754317067
                  1.3491613954          -0.51287353587
            P   1   1.00
                  0.34829881977          1.0000000
            D   1   1.00
                  1.4000000              1.0000000
            ****
            -S     0
            S   5   1.00
               9184.9303010             -0.22294387756E-02
               1381.5105503             -0.16683029937E-01
                313.87147580            -0.75262436116E-01
                 88.053870623           -0.19376827038
                 27.039914905           -0.17718020803
            S   3   1.00
                 45.648731303           -0.10736062573
                  4.9664522326           0.65066293018
                  2.0116242047           0.59712155354
            S   1   1.00
                  0.35661077013          1.0000000
            S   1   1.00
                  0.13507221477          1.0000000
            P   5   1.00
                261.98233439            -0.92729929822E-02
                 61.306894736           -0.66547669241E-01
                 19.103729887           -0.24828595903
                  6.6567720378          -0.48703847402
                  2.3959635161          -0.39337850312
            P   1   1.00
                  0.61776161679          1.0000000
            P   1   1.00
                  0.16993376871          1.0000000
            D   1   1.00
                  0.5500000              1.0000000
            D   1   1.00
                  2.9940000              1.0000000
            ****
            -Cl     0
            S   5   1.00
              10449.8275660              0.19708362484E-02
               1571.7365221              0.14754727977E-01
                357.12065523             0.66679112875E-01
                100.25185935             0.17228924084
                 30.812727554            0.15883786100
            S   3   1.00
                 51.923789434           -0.10009298909
                  5.7045760975           0.60841752753
                  2.3508376809           0.54352153355
            S   1   1.00
                  0.44605124672          1.0000000
            S   1   1.00
                  0.16848856190          1.0000000
            P   5   1.00
                307.66790569            -0.87801484118E-02
                 72.102015515           -0.63563355471E-01
                 22.532680262           -0.24016428276
                  7.8991765444          -0.47798866557
                  2.8767268321          -0.38515850005
            P   1   1.00
                  0.77459363955          1.0000000
            P   1   1.00
                  0.21037699698          1.0000000
            D   1   1.00
                  0.6500000              1.0000000
            D   1   1.00
                  3.6520000              1.0000000
            ****
            -Al     0
            S   5   1.00
               5887.5727030              0.13483347987E-02
                885.61225996             0.10071576809E-01
                201.13604899             0.45132454056E-01
                 56.284974674            0.11461268043
                 17.229551243            0.10159608943
            S   3   1.00
                 29.340249922            0.69347454208E-01
                  3.0439630420          -0.42528117679
                  1.1285539518          -0.41449832210
            S   1   1.00
                  0.14234175160          1.0000000
            S   1   1.00
                  0.54400192313E-01            1.0000000
            P   5   1.00
                145.11918809             0.63963373134E-02
                 33.717894833            0.44189359965E-01
                 10.369863083            0.15581575993
                  3.5135616036           0.28635286951
                  1.1980050273           0.22921423248
            P   1   1.00
                  0.26583005913          1.0000000
            P   1   1.00
                  0.71003361994E-01            1.0000000
            D   1   1.00
                  0.3000000              1.0000000
            D   1   1.00
                  1.1950000              1.0000000
            ****
            -Ti     0
            S   6   1.00
              42961.5121850              0.39127635355E-02
               6450.9759169              0.29969820489E-01
               1467.7210915              0.14836352707
                414.20997355             0.51347285324
                134.48715840             1.0335365483
                 46.122209796            0.77854233930
            S   3   1.00
                 89.447762543           -0.28385401259
                 10.223346060            1.6772785333
                  4.1353774271           1.2411928456
            S   3   1.00
                  6.7896181452          -0.78399994518E-02
                  1.1106730691           0.25495493019E-01
                  0.47565975578          0.16061172892E-01
            S   1   1.00
                  0.65986956934E-01            1.0000000
            S   1   1.00
                  0.25210342250E-01            1.0000000
            P   5   1.00
                522.03684782             0.19754179642E-01
                122.68649489             0.14460677619
                 38.572903611            0.54669004165
                 13.672169319            1.0531647540
                  5.0118529359           0.69111213363
            P   3   1.00
                  2.4131928282           0.75803437136
                  0.93252270050          1.3036241399
                  0.35429058390          0.53638653300
            P   1   1.00
                  0.1015610              1.0000000
            D   4   1.00
                 23.465125957            0.26536380115E-01
                  6.3332593832           0.13796453963
                  2.0766489946           0.35312644228
                  0.69027361954          0.48647124166
            D   1   1.00
                  0.21088738554          1.0000000
            ****
            -P     0
            S   5   1.00
               8002.4795106              0.57503489302E-02
               1203.6813590              0.43007628959E-01
                273.44227031             0.19363986252
                 76.655541517            0.49651693399
                 23.516927435            0.44983262479
            S   3   1.00
                 39.791683439            0.95188129789E-01
                  4.2770343323          -0.57649840368
                  1.6940256888          -0.54239583865
            S   1   1.00
                  0.27567674644          1.0000000
            S   1   1.00
                  0.10495590099          1.0000000
            P   5   1.00
                219.50755823             0.92100565257E-02
                 51.274155030            0.65409765745E-01
                 15.921595892            0.24033730279
                  5.5069913481           0.46318321788
                  1.9537719426           0.37392563382
            P   1   1.00
                  0.47803397932          1.0000000
            P   1   1.00
                  0.13657952621          1.0000000
            D   1   1.00
                  0.4500000              1.0000000
            D   1   1.00
                   2.5060000              1.0000000
            ****
 Initial command:
 /group/hpc-share/gaussian/2009D/g09/l1.exe "/scratch/gaussian/g_acetate.com-834355.hn1.marqnet.mu.edu/Gau-31105.inp" -scrdir="/scratch/gaussian/g_acetate.com-834355.hn1.marqnet.mu.edu/"
 Entering Link 1 = /group/hpc-share/gaussian/2009D/g09/l1.exe PID=     31109.
  
 Copyright (c) 1988,1990,1992,1993,1995,1998,2003,2009,2013,
            Gaussian, Inc.  All Rights Reserved.
  
 This is part of the Gaussian(R) 09 program.  It is based on
 the Gaussian(R) 03 system (copyright 2003, Gaussian, Inc.),
 the Gaussian(R) 98 system (copyright 1998, Gaussian, Inc.),
 the Gaussian(R) 94 system (copyright 1995, Gaussian, Inc.),
 the Gaussian 92(TM) system (copyright 1992, Gaussian, Inc.),
 the Gaussian 90(TM) system (copyright 1990, Gaussian, Inc.),
 the Gaussian 88(TM) system (copyright 1988, Gaussian, Inc.),
 the Gaussian 86(TM) system (copyright 1986, Carnegie Mellon
 University), and the Gaussian 82(TM) system (copyright 1983,
 Carnegie Mellon University). Gaussian is a federally registered
 trademark of Gaussian, Inc.
  
 This software contains proprietary and confidential information,
 including trade secrets, belonging to Gaussian, Inc.
  
 This software is provided under written license and may be
 used, copied, transmitted, or stored only in accord with that
 written license.
  
 The following legend is applicable only to US Government
 contracts under FAR:
  
                    RESTRICTED RIGHTS LEGEND
  
 Use, reproduction and disclosure by the US Government is
 subject to restrictions as set forth in subparagraphs (a)
 and (c) of the Commercial Computer Software - Restricted
 Rights clause in FAR 52.227-19.
  
 Gaussian, Inc.
 340 Quinnipiac St., Bldg. 40, Wallingford CT 06492
  
  
 ---------------------------------------------------------------
 Warning -- This program may not be used in any manner that
 competes with the business of Gaussian, Inc. or will provide
 assistance to any competitor of Gaussian, Inc.  The licensee
 of this program is prohibited from giving any competitor of
 Gaussian, Inc. access to this program.  By using this program,
 the user acknowledges that Gaussian, Inc. is engaged in the
 business of creating and licensing software in the field of
 computational chemistry and represents and warrants to the
 licensee that it is not a competitor of Gaussian, Inc. and that
 it will not use this program in any manner prohibited above.
 ---------------------------------------------------------------
  

 Cite this work as:
 Gaussian 09, Revision D.01,
 M. J. Frisch, G. W. Trucks, H. B. Schlegel, G. E. Scuseria, 
 M. A. Robb, J. R. Cheeseman, G. Scalmani, V. Barone, B. Mennucci, 
 G. A. Petersson, H. Nakatsuji, M. Caricato, X. Li, H. P. Hratchian, 
 A. F. Izmaylov, J. Bloino, G. Zheng, J. L. Sonnenberg, M. Hada, 
 M. Ehara, K. Toyota, R. Fukuda, J. Hasegawa, M. Ishida, T. Nakajima, 
 Y. Honda, O. Kitao, H. Nakai, T. Vreven, J. A. Montgomery, Jr., 
 J. E. Peralta, F. Ogliaro, M. Bearpark, J. J. Heyd, E. Brothers, 
 K. N. Kudin, V. N. Staroverov, T. Keith, R. Kobayashi, J. Normand, 
 K. Raghavachari, A. Rendell, J. C. Burant, S. S. Iyengar, J. Tomasi, 
 M. Cossi, N. Rega, J. M. Millam, M. Klene, J. E. Knox, J. B. Cross, 
 V. Bakken, C. Adamo, J. Jaramillo, R. Gomperts, R. E. Stratmann, 
 O. Yazyev, A. J. Austin, R. Cammi, C. Pomelli, J. W. Ochterski, 
 R. L. Martin, K. Morokuma, V. G. Zakrzewski, G. A. Voth, 
 P. Salvador, J. J. Dannenberg, S. Dapprich, A. D. Daniels, 
 O. Farkas, J. B. Foresman, J. V. Ortiz, J. Cioslowski, 
 and D. J. Fox, Gaussian, Inc., Wallingford CT, 2013.
 
 ******************************************
 Gaussian 09:  EM64L-G09RevD.01 24-Apr-2013
                 6-Oct-2015 
 ******************************************
 %nproc=8
 Will use up to    8 processors via shared memory.
 %chk=acetate.chk
 ------------------
 #P PBE1PBE/gen opt
 ------------------
 1/14=-1,18=20,19=15,26=3,38=1/1,3;
 2/9=110,12=2,17=6,18=5,40=1/2;
 3/5=7,11=2,16=1,25=1,30=1,71=1,74=-13/1,2,3;
 4//1;
 5/5=2,38=5/2;
 6/7=2,8=2,9=2,10=2,28=1/1;
 7//1,2,3,16;
 1/14=-1,18=20,19=15,26=3/3(2);
 2/9=110/2;
 99//99;
 2/9=110/2;
 3/5=7,6=1,11=2,16=1,25=1,30=1,71=1,74=-13,82=7/1,2,3;
 4/5=5,16=3,69=1/1;
 5/5=2,38=5/2;
 7//1,2,3,16;
 1/14=-1,18=20,19=15,26=3/3(-5);
 2/9=110/2;
 6/7=2,8=2,9=2,10=2,19=2,28=1/1;
 99/9=1/99;
 Leave Link    1 at Tue Oct  6 16:19:28 2015, MaxMem=           0 cpu:         0.4
 (Enter /group/hpc-share/gaussian/2009D/g09/l101.exe)
 -------
 acetate
 -------
 Symbolic Z-matrix:
 Charge = -1 Multiplicity = 1
 o
 c                    1    co2
 o                    2    oc3      1    oco3
 c                    2    cc4      3    cco4     1    dih4     0
 h                    4    hc5      2    hcc5     3    dih5     0
 h                    4    hc6      2    hcc6     5    dih6     0
 h                    4    hc7      2    hcc7     5    dih7     0
       Variables:
  co2                   1.4                      
  oc3                   1.4                      
  oco3                109.471                    
  cc4                   1.45                     
  cco4                109.471                    
  dih4                180.                       
  hc5                   1.089                    
  hcc5                109.471                    
  dih5                180.                       
  hc6                   1.089                    
  hcc6                109.471                    
  dih6                120.                       
  hc7                   1.089                    
  hcc7                109.471                    
  dih7                240.                       
 
     5 tetrahedral angles replaced.
 NAtoms=      7 NQM=        7 NQMF=       0 NMMI=      0 NMMIF=      0
                NMic=       0 NMicF=      0.
                    Isotopes and Nuclear Properties:
 (Nuclear quadrupole moments (NQMom) in fm**2, nuclear magnetic moments (NMagM)
  in nuclear magnetons)

  Atom         1           2           3           4           5           6           7
 IAtWgt=          16          12          16          12           1           1           1
 AtmWgt=  15.9949146  12.0000000  15.9949146  12.0000000   1.0078250   1.0078250   1.0078250
 NucSpn=           0           0           0           0           1           1           1
 AtZEff=   0.0000000   0.0000000   0.0000000   0.0000000   0.0000000   0.0000000   0.0000000
 NQMom=    0.0000000   0.0000000   0.0000000   0.0000000   0.0000000   0.0000000   0.0000000
 NMagM=    0.0000000   0.0000000   0.0000000   0.0000000   2.7928460   2.7928460   2.7928460
 AtZNuc=   8.0000000   6.0000000   8.0000000   6.0000000   1.0000000   1.0000000   1.0000000
 Leave Link  101 at Tue Oct  6 16:19:28 2015, MaxMem=    33554432 cpu:         1.1
 (Enter /group/hpc-share/gaussian/2009D/g09/l103.exe)

 GradGradGradGradGradGradGradGradGradGradGradGradGradGradGradGradGradGrad
 Berny optimization.
 Initialization pass.
                           ----------------------------
                           !    Initial Parameters    !
                           ! (Angstroms and Degrees)  !
 --------------------------                            --------------------------
 ! Name  Definition              Value          Derivative Info.                !
 --------------------------------------------------------------------------------
 ! R1    R(1,2)                  1.4            estimate D2E/DX2                !
 ! R2    R(2,3)                  1.4            estimate D2E/DX2                !
 ! R3    R(2,4)                  1.45           estimate D2E/DX2                !
 ! R4    R(4,5)                  1.089          estimate D2E/DX2                !
 ! R5    R(4,6)                  1.089          estimate D2E/DX2                !
 ! R6    R(4,7)                  1.089          estimate D2E/DX2                !
 ! A1    A(1,2,3)              109.4712         estimate D2E/DX2                !
 ! A2    A(1,2,4)              141.0576         estimate D2E/DX2                !
 ! A3    A(3,2,4)              109.4712         estimate D2E/DX2                !
 ! A4    A(2,4,5)              109.4712         estimate D2E/DX2                !
 ! A5    A(2,4,6)              109.4712         estimate D2E/DX2                !
 ! A6    A(2,4,7)              109.4712         estimate D2E/DX2                !
 ! A7    A(5,4,6)              109.4712         estimate D2E/DX2                !
 ! A8    A(5,4,7)              109.4712         estimate D2E/DX2                !
 ! A9    A(6,4,7)              109.4712         estimate D2E/DX2                !
 ! D1    D(1,2,4,5)              0.0            estimate D2E/DX2                !
 ! D2    D(1,2,4,6)            120.0            estimate D2E/DX2                !
 ! D3    D(1,2,4,7)           -120.0            estimate D2E/DX2                !
 ! D4    D(3,2,4,5)            180.0            estimate D2E/DX2                !
 ! D5    D(3,2,4,6)            -60.0            estimate D2E/DX2                !
 ! D6    D(3,2,4,7)             60.0            estimate D2E/DX2                !
 --------------------------------------------------------------------------------
 Trust Radius=3.00D-01 FncErr=1.00D-07 GrdErr=1.00D-06
 Number of steps in this run=     31 maximum allowed number of steps=    100.
 GradGradGradGradGradGradGradGradGradGradGradGradGradGradGradGradGradGrad

 Leave Link  103 at Tue Oct  6 16:19:28 2015, MaxMem=    33554432 cpu:         0.1
 (Enter /group/hpc-share/gaussian/2009D/g09/l202.exe)
                          Input orientation:                          
 ---------------------------------------------------------------------
 Center     Atomic      Atomic             Coordinates (Angstroms)
 Number     Number       Type             X           Y           Z
 ---------------------------------------------------------------------
      1          8           0        0.000000    0.000000    0.000000
      2          6           0        0.000000    0.000000    1.400000
      3          8           0        1.319933    0.000000    1.866667
      4          6           0       -0.911382    0.000000    2.527778
      5          1           0       -1.938101    0.000000    2.164778
      6          1           0       -0.740262   -0.889165    3.132778
      7          1           0       -0.740262    0.889165    3.132778
 ---------------------------------------------------------------------
                    Distance matrix (angstroms):
                    1          2          3          4          5
     1  O    0.000000
     2  C    1.400000   0.000000
     3  O    2.286190   1.400000   0.000000
     4  C    2.687057   1.450000   2.327194   0.000000
     5  H    2.905598   2.083536   3.271644   1.089000   0.000000
     6  H    3.339596   2.083536   2.576442   1.089000   1.778330
     7  H    3.339596   2.083536   2.576442   1.089000   1.778330
                    6          7
     6  H    0.000000
     7  H    1.778330   0.000000
 Stoichiometry    C2H3O2(1-)
 Framework group  CS[SG(C2HO2),X(H2)]
 Deg. of freedom    10
 Full point group                 CS      NOp   2
 Largest Abelian subgroup         CS      NOp   2
 Largest concise Abelian subgroup CS      NOp   2
                         Standard orientation:                         
 ---------------------------------------------------------------------
 Center     Atomic      Atomic             Coordinates (Angstroms)
 Number     Number       Type             X           Y           Z
 ---------------------------------------------------------------------
      1          8           0       -0.599403    1.391210    0.000000
      2          6           0        0.000000    0.126016    0.000000
      3          8           0       -0.993036   -0.860838    0.000000
      4          6           0        1.306477   -0.502965    0.000000
      5          1           0        2.078917    0.264666    0.000000
      6          1           0        1.410862   -1.122974    0.889165
      7          1           0        1.410862   -1.122974   -0.889165
 ---------------------------------------------------------------------
 Rotational constants (GHZ):     12.3809050      8.2954072      5.1278997
 Leave Link  202 at Tue Oct  6 16:19:28 2015, MaxMem=    33554432 cpu:         0.0
 (Enter /group/hpc-share/gaussian/2009D/g09/l301.exe)
 General basis read from cards:  (5D, 7F)
 Centers:       5      6      7
 S 3 1.00
     Exponent=  1.3010701000D+01 Coefficients=  1.9682158000D-02
     Exponent=  1.9622572000D+00 Coefficients=  1.3796524000D-01
     Exponent=  4.4453796000D-01 Coefficients=  4.7831935000D-01
 S 1 1.00
     Exponent=  1.2194962000D-01 Coefficients=  1.0000000000D+00
 ****
 Centers:       2      4
 S 5 1.00
     Exponent=  1.2384016938D+03 Coefficients=  5.4568832082D-03
     Exponent=  1.8629004992D+02 Coefficients=  4.0638409211D-02
     Exponent=  4.2251176346D+01 Coefficients=  1.8025593888D-01
     Exponent=  1.1676557932D+01 Coefficients=  4.6315121755D-01
     Exponent=  3.5930506482D+00 Coefficients=  4.4087173314D-01
 S 1 1.00
     Exponent=  4.0245147363D-01 Coefficients=  1.0000000000D+00
 S 1 1.00
     Exponent=  1.3090182668D-01 Coefficients=  1.0000000000D+00
 P 3 1.00
     Exponent=  9.4680970621D+00 Coefficients=  3.8387871728D-02
     Exponent=  2.0103545142D+00 Coefficients=  2.1117025112D-01
     Exponent=  5.4771004707D-01 Coefficients=  5.1328172114D-01
 P 1 1.00
     Exponent=  1.5268613795D-01 Coefficients=  1.0000000000D+00
 D 1 1.00
     Exponent=  8.0000000000D-01 Coefficients=  1.0000000000D+00
 ****
 Centers:       1      3
 S 5 1.00
     Exponent=  2.2661767785D+03 Coefficients= -5.3431809926D-03
     Exponent=  3.4087010191D+02 Coefficients= -3.9890039230D-02
     Exponent=  7.7363135167D+01 Coefficients= -1.7853911985D-01
     Exponent=  2.1479644940D+01 Coefficients= -4.6427684959D-01
     Exponent=  6.6589433124D+00 Coefficients= -4.4309745172D-01
 S 1 1.00
     Exponent=  8.0975975668D-01 Coefficients=  1.0000000000D+00
 S 1 1.00
     Exponent=  2.5530772234D-01 Coefficients=  1.0000000000D+00
 P 3 1.00
     Exponent=  1.7721504317D+01 Coefficients=  4.3394573193D-02
     Exponent=  3.8635505440D+00 Coefficients=  2.3094120765D-01
     Exponent=  1.0480920883D+00 Coefficients=  5.1375311064D-01
 P 1 1.00
     Exponent=  2.7641544411D-01 Coefficients=  1.0000000000D+00
 D 1 1.00
     Exponent=  1.2000000000D+00 Coefficients=  1.0000000000D+00
 ****
 Ernie: Thresh=  0.10000D-02 Tol=  0.10000D-05 Strict=F.
 There are    48 symmetry adapted cartesian basis functions of A'  symmetry.
 There are    18 symmetry adapted cartesian basis functions of A"  symmetry.
 There are    44 symmetry adapted basis functions of A'  symmetry.
 There are    18 symmetry adapted basis functions of A"  symmetry.
    62 basis functions,   112 primitive gaussians,    66 cartesian basis functions
    16 alpha electrons       16 beta electrons
       nuclear repulsion energy       107.3896462989 Hartrees.
 IExCor= 1009 DFT=T Ex+Corr=PBE1PBE ExCW=0 ScaHFX=  0.250000
 ScaDFX=  0.750000  0.750000  1.000000  1.000000 ScalE2=  1.000000  1.000000
 IRadAn=      0 IRanWt=     -1 IRanGd=            0 ICorTp=0 IEmpDi=  4
 NAtoms=    7 NActive=    7 NUniq=    6 SFac= 1.36D+00 NAtFMM=   60 NAOKFM=F Big=F
 Integral buffers will be    131072 words long.
 Raffenetti 2 integral format.
 Two-electron integral symmetry is turned on.
 Leave Link  301 at Tue Oct  6 16:19:29 2015, MaxMem=    33554432 cpu:         1.3
 (Enter /group/hpc-share/gaussian/2009D/g09/l302.exe)
 NPDir=0 NMtPBC=     1 NCelOv=     1 NCel=       1 NClECP=     1 NCelD=      1
         NCelK=      1 NCelE2=     1 NClLst=     1 CellRange=     0.0.
 One-electron integrals computed using PRISM.
 One-electron integral symmetry used in STVInt
 NBasis=    62 RedAO= T EigKep=  4.03D-03  NBF=    44    18
 NBsUse=    62 1.00D-06 EigRej= -1.00D+00 NBFU=    44    18
 Precomputing XC quadrature grid using
 IXCGrd= 4 IRadAn=           0 IRanWt=          -1 IRanGd=           0 AccXCQ= 0.00D+00.
 Generated NRdTot=       0 NPtTot=           0 NUsed=           0 NTot=          32
 NSgBfM=    66    66    66    66    66 MxSgAt=     7 MxSgA2=     7.
 Leave Link  302 at Tue Oct  6 16:19:29 2015, MaxMem=    33554432 cpu:         1.7
 (Enter /group/hpc-share/gaussian/2009D/g09/l303.exe)
 DipDrv:  MaxL=1.
 Leave Link  303 at Tue Oct  6 16:19:29 2015, MaxMem=    33554432 cpu:         0.3
 (Enter /group/hpc-share/gaussian/2009D/g09/l401.exe)
 ExpMin= 1.22D-01 ExpMax= 2.27D+03 ExpMxC= 3.41D+02 IAcc=1 IRadAn=         1 AccDes= 0.00D+00
 Harris functional with IExCor= 1009 and IRadAn=       1 diagonalized for initial guess.
 HarFok:  IExCor= 1009 AccDes= 0.00D+00 IRadAn=         1 IDoV= 1 UseB2=F ITyADJ=14
 ICtDFT=  3500011 ScaDFX=  1.000000  1.000000  1.000000  1.000000
 FoFCou: FMM=F IPFlag=           0 FMFlag=      100000 FMFlg1=           0
         NFxFlg=           0 DoJE=T BraDBF=F KetDBF=T FulRan=T
         wScrn=  0.000000 ICntrl=     500 IOpCl=  0 I1Cent=   200000004 NGrid=           0
         NMat0=    1 NMatS0=      1 NMatT0=    0 NMatD0=    1 NMtDS0=    0 NMtDT0=    0
 Petite list used in FoFCou.
 Harris En= -228.284059403983    
 JPrj=0 DoOrth=F DoCkMO=F.
 Initial guess orbital symmetries:
       Occupied  (A') (A') (A') (A') (A') (A') (A') (A') (A') (A")
                 (A') (A') (A") (A') (A") (A')
       Virtual   (A") (A') (A') (A") (A') (A') (A') (A') (A") (A')
                 (A') (A') (A") (A') (A") (A') (A') (A') (A') (A')
                 (A") (A") (A') (A') (A') (A") (A') (A") (A') (A')
                 (A') (A") (A') (A") (A') (A') (A") (A") (A') (A')
                 (A') (A") (A") (A') (A') (A')
 The electronic state of the initial guess is 1-A'.
 Leave Link  401 at Tue Oct  6 16:19:29 2015, MaxMem=    33554432 cpu:         2.0
 (Enter /group/hpc-share/gaussian/2009D/g09/l502.exe)
 Closed shell SCF:
 Using DIIS extrapolation, IDIIS=  1040.
 Integral symmetry usage will be decided dynamically.
 Keep R1 ints in memory in symmetry-blocked form, NReq=2934144.
 IVT=       32744 IEndB=       32744 NGot=    33554432 MDV=    32528432
 LenX=    32528432 LenY=    32523635
 Requested convergence on RMS density matrix=1.00D-08 within 128 cycles.
 Requested convergence on MAX density matrix=1.00D-06.
 Requested convergence on             energy=1.00D-06.
 No special actions if energy rises.
 FoFCou: FMM=F IPFlag=           0 FMFlag=           0 FMFlg1=           0
         NFxFlg=           0 DoJE=F BraDBF=F KetDBF=F FulRan=T
         wScrn=  0.000000 ICntrl=     600 IOpCl=  0 I1Cent=           0 NGrid=           0
         NMat0=    1 NMatS0=   1953 NMatT0=    0 NMatD0=    1 NMtDS0=    0 NMtDT0=    0
 Petite list used in FoFCou.
 Integral accuracy reduced to 1.0D-05 until final iterations.

 Cycle   1  Pass 0  IDiag  1:
 E= -227.779174834937    
 DIIS: error= 6.72D-02 at cycle   1 NSaved=   1.
 NSaved= 1 IEnMin= 1 EnMin= -227.779174834937     IErMin= 1 ErrMin= 6.72D-02
 ErrMax= 6.72D-02  0.00D+00 EMaxC= 1.00D-01 BMatC= 2.46D-01 BMatP= 2.46D-01
 IDIUse=3 WtCom= 3.28D-01 WtEn= 6.72D-01
 Coeff-Com:  0.100D+01
 Coeff-En:   0.100D+01
 Coeff:      0.100D+01
 Gap=     0.046 Goal=   None    Shift=    0.000
 GapD=    0.046 DampG=0.250 DampE=0.500 DampFc=0.2500 IDamp=-1.
 Damping current iteration by 2.50D-01
 RMSDP=5.23D-02 MaxDP=1.73D+00              OVMax= 3.91D-01

 Cycle   2  Pass 0  IDiag  1:
 E= -227.852337603430     Delta-E=       -0.073162768492 Rises=F Damp=T
 DIIS: error= 2.75D-02 at cycle   2 NSaved=   2.
 NSaved= 2 IEnMin= 2 EnMin= -227.852337603430     IErMin= 2 ErrMin= 2.75D-02
 ErrMax= 2.75D-02  0.00D+00 EMaxC= 1.00D-01 BMatC= 3.63D-02 BMatP= 2.46D-01
 IDIUse=3 WtCom= 7.25D-01 WtEn= 2.75D-01
 Coeff-Com: -0.445D+00 0.144D+01
 Coeff-En:   0.000D+00 0.100D+01
 Coeff:     -0.322D+00 0.132D+01
 Gap=     0.183 Goal=   None    Shift=    0.000
 RMSDP=8.57D-03 MaxDP=1.77D-01 DE=-7.32D-02 OVMax= 2.80D-01

 Cycle   3  Pass 0  IDiag  1:
 E= -227.967390372170     Delta-E=       -0.115052768740 Rises=F Damp=F
 DIIS: error= 1.97D-02 at cycle   3 NSaved=   3.
 NSaved= 3 IEnMin= 3 EnMin= -227.967390372170     IErMin= 3 ErrMin= 1.97D-02
 ErrMax= 1.97D-02  0.00D+00 EMaxC= 1.00D-01 BMatC= 2.76D-02 BMatP= 3.63D-02
 IDIUse=3 WtCom= 8.03D-01 WtEn= 1.97D-01
 Coeff-Com: -0.263D+00 0.855D+00 0.408D+00
 Coeff-En:   0.000D+00 0.000D+00 0.100D+01
 Coeff:     -0.211D+00 0.687D+00 0.524D+00
 Gap=     0.209 Goal=   None    Shift=    0.000
 RMSDP=4.40D-03 MaxDP=6.10D-02 DE=-1.15D-01 OVMax= 1.12D-01

 Cycle   4  Pass 0  IDiag  1:
 E= -227.984851890044     Delta-E=       -0.017461517874 Rises=F Damp=F
 DIIS: error= 1.50D-02 at cycle   4 NSaved=   4.
 NSaved= 4 IEnMin= 4 EnMin= -227.984851890044     IErMin= 4 ErrMin= 1.50D-02
 ErrMax= 1.50D-02  0.00D+00 EMaxC= 1.00D-01 BMatC= 1.09D-02 BMatP= 2.76D-02
 IDIUse=3 WtCom= 8.50D-01 WtEn= 1.50D-01
 Coeff-Com: -0.117D+00 0.396D+00 0.354D+00 0.367D+00
 Coeff-En:   0.000D+00 0.000D+00 0.277D+00 0.723D+00
 Coeff:     -0.997D-01 0.337D+00 0.343D+00 0.420D+00
 Gap=     0.201 Goal=   None    Shift=    0.000
 RMSDP=2.38D-03 MaxDP=2.95D-02 DE=-1.75D-02 OVMax= 6.66D-02

 Cycle   5  Pass 0  IDiag  1:
 E= -227.992385328010     Delta-E=       -0.007533437966 Rises=F Damp=F
 DIIS: error= 5.52D-03 at cycle   5 NSaved=   5.
 NSaved= 5 IEnMin= 5 EnMin= -227.992385328010     IErMin= 5 ErrMin= 5.52D-03
 ErrMax= 5.52D-03  0.00D+00 EMaxC= 1.00D-01 BMatC= 1.69D-03 BMatP= 1.09D-02
 IDIUse=3 WtCom= 9.45D-01 WtEn= 5.52D-02
 Coeff-Com:  0.867D-02-0.150D-01 0.937D-01 0.329D+00 0.584D+00
 Coeff-En:   0.000D+00 0.000D+00 0.000D+00 0.193D+00 0.807D+00
 Coeff:      0.819D-02-0.142D-01 0.885D-01 0.321D+00 0.596D+00
 Gap=     0.197 Goal=   None    Shift=    0.000
 RMSDP=7.30D-04 MaxDP=9.08D-03 DE=-7.53D-03 OVMax= 2.18D-02

 Cycle   6  Pass 0  IDiag  1:
 E= -227.993832477499     Delta-E=       -0.001447149489 Rises=F Damp=F
 DIIS: error= 6.58D-04 at cycle   6 NSaved=   6.
 NSaved= 6 IEnMin= 6 EnMin= -227.993832477499     IErMin= 6 ErrMin= 6.58D-04
 ErrMax= 6.58D-04  0.00D+00 EMaxC= 1.00D-01 BMatC= 2.45D-05 BMatP= 1.69D-03
 IDIUse=3 WtCom= 9.93D-01 WtEn= 6.58D-03
 Coeff-Com:  0.853D-02-0.185D-01 0.162D-01 0.658D-01 0.195D+00 0.733D+00
 Coeff-En:   0.000D+00 0.000D+00 0.000D+00 0.000D+00 0.000D+00 0.100D+01
 Coeff:      0.847D-02-0.184D-01 0.161D-01 0.654D-01 0.194D+00 0.734D+00
 Gap=     0.197 Goal=   None    Shift=    0.000
 RMSDP=1.25D-04 MaxDP=1.76D-03 DE=-1.45D-03 OVMax= 1.90D-03

 Cycle   7  Pass 0  IDiag  1:
 E= -227.993854615968     Delta-E=       -0.000022138469 Rises=F Damp=F
 DIIS: error= 9.00D-05 at cycle   7 NSaved=   7.
 NSaved= 7 IEnMin= 7 EnMin= -227.993854615968     IErMin= 7 ErrMin= 9.00D-05
 ErrMax= 9.00D-05  0.00D+00 EMaxC= 1.00D-01 BMatC= 9.60D-07 BMatP= 2.45D-05
 IDIUse=1 WtCom= 1.00D+00 WtEn= 0.00D+00
 Coeff-Com:  0.286D-02-0.514D-02 0.323D-02 0.567D-02 0.414D-01 0.266D+00
 Coeff-Com:  0.686D+00
 Coeff:      0.286D-02-0.514D-02 0.323D-02 0.567D-02 0.414D-01 0.266D+00
 Coeff:      0.686D+00
 Gap=     0.197 Goal=   None    Shift=    0.000
 RMSDP=3.16D-05 MaxDP=5.00D-04 DE=-2.21D-05 OVMax= 3.22D-04

 Cycle   8  Pass 0  IDiag  1:
 E= -227.993855525240     Delta-E=       -0.000000909272 Rises=F Damp=F
 DIIS: error= 1.70D-05 at cycle   8 NSaved=   8.
 NSaved= 8 IEnMin= 8 EnMin= -227.993855525240     IErMin= 8 ErrMin= 1.70D-05
 ErrMax= 1.70D-05  0.00D+00 EMaxC= 1.00D-01 BMatC= 2.94D-08 BMatP= 9.60D-07
 IDIUse=1 WtCom= 1.00D+00 WtEn= 0.00D+00
 Coeff-Com:  0.349D-03-0.432D-03-0.627D-04-0.268D-02-0.276D-02 0.482D-02
 Coeff-Com:  0.142D+00 0.859D+00
 Coeff:      0.349D-03-0.432D-03-0.627D-04-0.268D-02-0.276D-02 0.482D-02
 Coeff:      0.142D+00 0.859D+00
 Gap=     0.197 Goal=   None    Shift=    0.000
 RMSDP=7.24D-06 MaxDP=1.14D-04 DE=-9.09D-07 OVMax= 9.19D-05

 Initial convergence to 1.0D-05 achieved.  Increase integral accuracy.
 Cycle   9  Pass 1  IDiag  1:
 E= -227.993861240058     Delta-E=       -0.000005714818 Rises=F Damp=F
 DIIS: error= 1.01D-05 at cycle   1 NSaved=   1.
 NSaved= 1 IEnMin= 1 EnMin= -227.993861240058     IErMin= 1 ErrMin= 1.01D-05
 ErrMax= 1.01D-05  0.00D+00 EMaxC= 1.00D-01 BMatC= 1.04D-08 BMatP= 1.04D-08
 IDIUse=1 WtCom= 1.00D+00 WtEn= 0.00D+00
 Coeff-Com:  0.100D+01
 Coeff:      0.100D+01
 Gap=     0.197 Goal=   None    Shift=    0.000
 RMSDP=7.24D-06 MaxDP=1.14D-04 DE=-5.71D-06 OVMax= 4.55D-05

 Cycle  10  Pass 1  IDiag  1:
 E= -227.993861252144     Delta-E=       -0.000000012086 Rises=F Damp=F
 DIIS: error= 2.03D-06 at cycle   2 NSaved=   2.
 NSaved= 2 IEnMin= 2 EnMin= -227.993861252144     IErMin= 2 ErrMin= 2.03D-06
 ErrMax= 2.03D-06  0.00D+00 EMaxC= 1.00D-01 BMatC= 5.59D-10 BMatP= 1.04D-08
 IDIUse=1 WtCom= 1.00D+00 WtEn= 0.00D+00
 Coeff-Com:  0.804D-01 0.920D+00
 Coeff:      0.804D-01 0.920D+00
 Gap=     0.197 Goal=   None    Shift=    0.000
 RMSDP=8.01D-07 MaxDP=1.17D-05 DE=-1.21D-08 OVMax= 1.46D-05

 Cycle  11  Pass 1  IDiag  1:
 E= -227.993861252086     Delta-E=        0.000000000059 Rises=F Damp=F
 DIIS: error= 2.59D-06 at cycle   3 NSaved=   3.
 NSaved= 3 IEnMin= 2 EnMin= -227.993861252144     IErMin= 2 ErrMin= 2.03D-06
 ErrMax= 2.59D-06  0.00D+00 EMaxC= 1.00D-01 BMatC= 6.88D-10 BMatP= 5.59D-10
 IDIUse=1 WtCom= 1.00D+00 WtEn= 0.00D+00
 Coeff-Com:  0.183D-01 0.526D+00 0.456D+00
 Coeff:      0.183D-01 0.526D+00 0.456D+00
 Gap=     0.197 Goal=   None    Shift=    0.000
 RMSDP=6.06D-07 MaxDP=7.24D-06 DE= 5.88D-11 OVMax= 1.06D-05

 Cycle  12  Pass 1  IDiag  1:
 E= -227.993861252562     Delta-E=       -0.000000000477 Rises=F Damp=F
 DIIS: error= 1.38D-06 at cycle   4 NSaved=   4.
 NSaved= 4 IEnMin= 4 EnMin= -227.993861252562     IErMin= 4 ErrMin= 1.38D-06
 ErrMax= 1.38D-06  0.00D+00 EMaxC= 1.00D-01 BMatC= 1.57D-10 BMatP= 5.59D-10
 IDIUse=1 WtCom= 1.00D+00 WtEn= 0.00D+00
 Coeff-Com: -0.798D-02 0.192D+00 0.319D+00 0.497D+00
 Coeff:     -0.798D-02 0.192D+00 0.319D+00 0.497D+00
 Gap=     0.197 Goal=   None    Shift=    0.000
 RMSDP=2.48D-07 MaxDP=3.76D-06 DE=-4.77D-10 OVMax= 6.76D-06

 Cycle  13  Pass 1  IDiag  1:
 E= -227.993861252676     Delta-E=       -0.000000000114 Rises=F Damp=F
 DIIS: error= 5.61D-07 at cycle   5 NSaved=   5.
 NSaved= 5 IEnMin= 5 EnMin= -227.993861252676     IErMin= 5 ErrMin= 5.61D-07
 ErrMax= 5.61D-07  0.00D+00 EMaxC= 1.00D-01 BMatC= 1.68D-11 BMatP= 1.57D-10
 IDIUse=1 WtCom= 1.00D+00 WtEn= 0.00D+00
 Coeff-Com: -0.737D-02 0.751D-01 0.163D+00 0.328D+00 0.441D+00
 Coeff:     -0.737D-02 0.751D-01 0.163D+00 0.328D+00 0.441D+00
 Gap=     0.197 Goal=   None    Shift=    0.000
 RMSDP=9.00D-08 MaxDP=1.04D-06 DE=-1.14D-10 OVMax= 2.07D-06

 Cycle  14  Pass 1  IDiag  1:
 E= -227.993861252688     Delta-E=       -0.000000000012 Rises=F Damp=F
 DIIS: error= 1.98D-07 at cycle   6 NSaved=   6.
 NSaved= 6 IEnMin= 6 EnMin= -227.993861252688     IErMin= 6 ErrMin= 1.98D-07
 ErrMax= 1.98D-07  0.00D+00 EMaxC= 1.00D-01 BMatC= 2.43D-12 BMatP= 1.68D-11
 IDIUse=1 WtCom= 1.00D+00 WtEn= 0.00D+00
 Coeff-Com: -0.245D-02 0.107D-01 0.446D-01 0.130D+00 0.300D+00 0.518D+00
 Coeff:     -0.245D-02 0.107D-01 0.446D-01 0.130D+00 0.300D+00 0.518D+00
 Gap=     0.197 Goal=   None    Shift=    0.000
 RMSDP=3.48D-08 MaxDP=6.91D-07 DE=-1.15D-11 OVMax= 6.51D-07

 Cycle  15  Pass 1  IDiag  1:
 E= -227.993861252689     Delta-E=       -0.000000000001 Rises=F Damp=F
 DIIS: error= 2.73D-08 at cycle   7 NSaved=   7.
 NSaved= 7 IEnMin= 7 EnMin= -227.993861252689     IErMin= 7 ErrMin= 2.73D-08
 ErrMax= 2.73D-08  0.00D+00 EMaxC= 1.00D-01 BMatC= 4.75D-14 BMatP= 2.43D-12
 IDIUse=1 WtCom= 1.00D+00 WtEn= 0.00D+00
 Coeff-Com: -0.551D-04-0.417D-02-0.350D-02 0.805D-02 0.316D-01 0.149D+00
 Coeff-Com:  0.819D+00
 Coeff:     -0.551D-04-0.417D-02-0.350D-02 0.805D-02 0.316D-01 0.149D+00
 Coeff:      0.819D+00
 Gap=     0.197 Goal=   None    Shift=    0.000
 RMSDP=8.77D-09 MaxDP=1.09D-07 DE=-8.53D-13 OVMax= 1.07D-07

 SCF Done:  E(RPBE1PBE) =  -227.993861253     A.U. after   15 cycles
            NFock= 15  Conv=0.88D-08     -V/T= 2.0086
 KE= 2.260492248214D+02 PE=-7.587500204703D+02 EE= 1.973172880972D+02
 Leave Link  502 at Tue Oct  6 16:19:30 2015, MaxMem=    33554432 cpu:         4.9
 (Enter /group/hpc-share/gaussian/2009D/g09/l601.exe)
 Copying SCF densities to generalized density rwf, IOpCl= 0 IROHF=0.

 **********************************************************************

            Population analysis using the SCF density.

 **********************************************************************

 Orbital symmetries:
       Occupied  (A') (A') (A') (A') (A') (A') (A') (A') (A") (A')
                 (A') (A') (A") (A') (A") (A')
       Virtual   (A") (A') (A') (A") (A') (A') (A') (A") (A') (A')
                 (A') (A") (A') (A') (A") (A') (A') (A') (A') (A')
                 (A") (A") (A') (A') (A") (A') (A') (A") (A') (A')
                 (A') (A") (A') (A") (A') (A') (A") (A") (A') (A')
                 (A') (A") (A") (A') (A') (A')
 The electronic state is 1-A'.
 Alpha  occ. eigenvalues --  -18.91638 -18.89385 -10.09877 -10.05388  -0.73396
 Alpha  occ. eigenvalues --   -0.63893  -0.56654  -0.32318  -0.27366  -0.26341
 Alpha  occ. eigenvalues --   -0.18746  -0.12894  -0.10565  -0.01990   0.00562
 Alpha  occ. eigenvalues --    0.02836
 Alpha virt. eigenvalues --    0.22567   0.24045   0.29322   0.32692   0.41084
 Alpha virt. eigenvalues --    0.47380   0.50876   0.67000   0.69375   0.70553
 Alpha virt. eigenvalues --    0.79214   0.79686   0.81159   0.85397   0.88256
 Alpha virt. eigenvalues --    0.89597   0.93790   1.06847   1.21327   1.22109
 Alpha virt. eigenvalues --    1.27894   1.35025   1.39910   1.44399   1.64961
 Alpha virt. eigenvalues --    1.66185   1.73416   1.87002   1.90370   2.09338
 Alpha virt. eigenvalues --    2.15045   2.23875   2.34867   2.41003   2.48618
 Alpha virt. eigenvalues --    2.70024   2.94962   2.96313   2.97053   3.00325
 Alpha virt. eigenvalues --    3.09422   3.21270   3.24964   3.49379   3.62814
 Alpha virt. eigenvalues --    3.79242
          Condensed to atoms (all electrons):
               1          2          3          4          5          6
     1  O    8.170906   0.537029  -0.107592  -0.087824   0.013652   0.001592
     2  C    0.537029   4.735417   0.499128   0.049436   0.033338   0.012597
     3  O   -0.107592   0.499128   8.317404  -0.149231   0.012699   0.005786
     4  C   -0.087824   0.049436  -0.149231   5.616452   0.174878   0.328418
     5  H    0.013652   0.033338   0.012699   0.174878   0.756803  -0.019890
     6  H    0.001592   0.012597   0.005786   0.328418  -0.019890   0.583061
     7  H    0.001592   0.012597   0.005786   0.328418  -0.019890  -0.014067
               7
     1  O    0.001592
     2  C    0.012597
     3  O    0.005786
     4  C    0.328418
     5  H   -0.019890
     6  H   -0.014067
     7  H    0.583061
 Mulliken charges:
               1
     1  O   -0.529354
     2  C    0.120459
     3  O   -0.583979
     4  C   -0.260547
     5  H    0.048411
     6  H    0.102504
     7  H    0.102504
 Sum of Mulliken charges =  -1.00000
 Mulliken charges with hydrogens summed into heavy atoms:
               1
     1  O   -0.529354
     2  C    0.120459
     3  O   -0.583979
     4  C   -0.007127
 Electronic spatial extent (au):  <R**2>=            268.0341
 Charge=             -1.0000 electrons
 Dipole moment (field-independent basis, Debye):
    X=              4.6045    Y=             -1.4577    Z=              0.0000  Tot=              4.8297
 Quadrupole moment (field-independent basis, Debye-Ang):
   XX=            -30.8842   YY=            -33.8645   ZZ=            -24.3561
   XY=             -0.5249   XZ=              0.0000   YZ=              0.0000
 Traceless Quadrupole moment (field-independent basis, Debye-Ang):
   XX=             -1.1826   YY=             -4.1629   ZZ=              5.3455
   XY=             -0.5249   XZ=              0.0000   YZ=              0.0000
 Octapole moment (field-independent basis, Debye-Ang**2):
  XXX=             -4.5684  YYY=             -5.4268  ZZZ=              0.0000  XYY=              4.2609
  XXY=              2.3836  XXZ=              0.0000  XZZ=             -1.0854  YZZ=             -0.2846
  YYZ=              0.0000  XYZ=              0.0000
 Hexadecapole moment (field-independent basis, Debye-Ang**3):
 XXXX=           -183.2033 YYYY=           -154.6163 ZZZZ=            -28.5248 XXXY=             16.6512
 XXXZ=              0.0000 YYYX=             17.4826 YYYZ=              0.0000 ZZZX=              0.0000
 ZZZY=              0.0000 XXYY=            -55.1954 XXZZ=            -32.6325 YYZZ=            -27.2061
 XXYZ=              0.0000 YYXZ=              0.0000 ZZXY=              4.4826
 N-N= 1.073896462989D+02 E-N=-7.587500212380D+02  KE= 2.260492248214D+02
 Symmetry A'   KE= 2.163063818770D+02
 Symmetry A"   KE= 9.742842944467D+00
 No NMR shielding tensors so no spin-rotation constants.
 Leave Link  601 at Tue Oct  6 16:19:30 2015, MaxMem=    33554432 cpu:         1.1
 (Enter /group/hpc-share/gaussian/2009D/g09/l701.exe)
 Compute integral first derivatives.
 ... and contract with generalized density number  0.
 Leave Link  701 at Tue Oct  6 16:19:31 2015, MaxMem=    33554432 cpu:         1.3
 (Enter /group/hpc-share/gaussian/2009D/g09/l702.exe)
 L702 exits ... SP integral derivatives will be done elsewhere.
 Leave Link  702 at Tue Oct  6 16:19:31 2015, MaxMem=    33554432 cpu:         0.1
 (Enter /group/hpc-share/gaussian/2009D/g09/l703.exe)
 Compute integral first derivatives, UseDBF=F ICtDFT=           0.
 Integral derivatives from FoFJK, PRISM(SPDF).
 Calling FoFJK, ICntrl=      2127 FMM=F ISym2X=1 I1Cent= 0 IOpClX= 0 NMat=1 NMatS=1 NMatT=0.
 FoFJK:  IHMeth= 1 ICntrl=    2127 DoSepK=F KAlg= 0 I1Cent=   0 FoldK=F
 IRaf=         0 NMat=   1 IRICut=       1 DoRegI=T DoRafI=F ISym2E= 1.
 FoFCou: FMM=F IPFlag=           0 FMFlag=      100000 FMFlg1=         800
         NFxFlg=           0 DoJE=F BraDBF=F KetDBF=F FulRan=T
         wScrn=  0.000000 ICntrl=    2127 IOpCl=  0 I1Cent=           0 NGrid=           0
         NMat0=    1 NMatS0=      1 NMatT0=    0 NMatD0=    1 NMtDS0=    0 NMtDT0=    0
 Petite list used in FoFCou.
 Leave Link  703 at Tue Oct  6 16:19:31 2015, MaxMem=    33554432 cpu:         2.2
 (Enter /group/hpc-share/gaussian/2009D/g09/l716.exe)
 Dipole        = 1.81153484D+00-5.73517735D-01 2.22044605D-16
 ***** Axes restored to original set *****
 -------------------------------------------------------------------
 Center     Atomic                   Forces (Hartrees/Bohr)
 Number     Number              X              Y              Z
 -------------------------------------------------------------------
      1        8          -0.059271219    0.000000000    0.126906519
      2        6           0.224414885    0.000000000   -0.125210204
      3        8          -0.112052617    0.000000000   -0.009057446
      4        6          -0.038390251    0.000000000   -0.007353274
      5        1          -0.018752071    0.000000000    0.003090317
      6        1           0.002025636   -0.005923207    0.005812044
      7        1           0.002025636    0.005923207    0.005812044
 -------------------------------------------------------------------
 Cartesian Forces:  Max     0.224414885 RMS     0.069120602
 Leave Link  716 at Tue Oct  6 16:19:31 2015, MaxMem=    33554432 cpu:         0.2
 (Enter /group/hpc-share/gaussian/2009D/g09/l103.exe)

 GradGradGradGradGradGradGradGradGradGradGradGradGradGradGradGradGradGrad
 Berny optimization.
 FormGI is forming the generalized inverse of G from B-inverse, IUseBI=4.
 Internal  Forces:  Max     0.126903928 RMS     0.044960078
 Search for a local minimum.
 Step number   1 out of a maximum of   31
 All quantities printed in internal units (Hartrees-Bohrs-Radians)
 RMS Force = .44960D-01 SwitMx=.10000D-02 MixMth= 1
 Mixed Optimization -- RFO/linear search
 Second derivative matrix not updated -- first step.
 ITU=  0
     Eigenvalues ---    0.01427   0.01427   0.07904   0.07904   0.16000
     Eigenvalues ---    0.16000   0.16000   0.25000   0.25000   0.34928
     Eigenvalues ---    0.34928   0.34928   0.38245   0.45621   0.45621
 RFO step:  Lambda=-9.22319909D-02 EMin= 1.42735158D-02
 Linear search not attempted -- first point.
 Maximum step size (   0.300) exceeded in Quadratic search.
    -- Step size scaled by   0.653
 Iteration  1 RMS(Cart)=  0.05728446 RMS(Int)=  0.00437643
 Iteration  2 RMS(Cart)=  0.00457538 RMS(Int)=  0.00004693
 Iteration  3 RMS(Cart)=  0.00001446 RMS(Int)=  0.00004535
 Iteration  4 RMS(Cart)=  0.00000000 RMS(Int)=  0.00004535
 ITry= 1 IFail=0 DXMaxC= 1.48D-01 DCOld= 1.00D+10 DXMaxT= 3.00D-01 DXLimC= 3.00D+00 Rises=F
 ClnCor:  largest displacement from symmetrization is 4.01D-11 for atom     5.
 Variable       Old X    -DE/DX   Delta X   Delta X   Delta X     New X
                                 (Linear)    (Quad)   (Total)
    R1        2.64562  -0.12690   0.00000  -0.15103  -0.15103   2.49459
    R2        2.64562  -0.10867   0.00000  -0.12932  -0.12932   2.51629
    R3        2.74010   0.03910   0.00000   0.05376   0.05376   2.79386
    R4        2.05791   0.01665   0.00000   0.02461   0.02461   2.08252
    R5        2.05791   0.00839   0.00000   0.01240   0.01240   2.07031
    R6        2.05791   0.00839   0.00000   0.01240   0.01240   2.07031
    A1        1.91063   0.07768   0.00000   0.14815   0.14815   2.05878
    A2        2.46192  -0.07916   0.00000  -0.15097  -0.15097   2.31095
    A3        1.91063   0.00148   0.00000   0.00283   0.00283   1.91346
    A4        1.91063   0.01463   0.00000   0.03983   0.03975   1.95039
    A5        1.91063  -0.00211   0.00000  -0.00644  -0.00652   1.90411
    A6        1.91063  -0.00211   0.00000  -0.00644  -0.00652   1.90411
    A7        1.91063  -0.00425   0.00000  -0.00901  -0.00909   1.90154
    A8        1.91063  -0.00425   0.00000  -0.00901  -0.00909   1.90154
    A9        1.91063  -0.00193   0.00000  -0.00894  -0.00903   1.90160
    D1        0.00000   0.00000   0.00000   0.00000   0.00000   0.00000
    D2        2.09440   0.00247   0.00000   0.00942   0.00941   2.10380
    D3       -2.09440  -0.00247   0.00000  -0.00942  -0.00941  -2.10380
    D4        3.14159   0.00000   0.00000   0.00000   0.00000   3.14159
    D5       -1.04720   0.00247   0.00000   0.00942   0.00941  -1.03779
    D6        1.04720  -0.00247   0.00000  -0.00942  -0.00941   1.03779
         Item               Value     Threshold  Converged?
 Maximum Force            0.126904     0.000450     NO 
 RMS     Force            0.044960     0.000300     NO 
 Maximum Displacement     0.147845     0.001800     NO 
 RMS     Displacement     0.057247     0.001200     NO 
 Predicted change in Energy=-4.471975D-02
 Lowest energy point so far.  Saving SCF results.
 GradGradGradGradGradGradGradGradGradGradGradGradGradGradGradGradGradGrad

 Leave Link  103 at Tue Oct  6 16:19:31 2015, MaxMem=    33554432 cpu:         0.2
 (Enter /group/hpc-share/gaussian/2009D/g09/l202.exe)
                          Input orientation:                          
 ---------------------------------------------------------------------
 Center     Atomic      Atomic             Coordinates (Angstroms)
 Number     Number       Type             X           Y           Z
 ---------------------------------------------------------------------
      1          8           0       -0.074685    0.000000    0.078236
      2          6           0        0.073020    0.000000    1.390027
      3          8           0        1.311632    0.000000    1.878806
      4          6           0       -0.900201    0.000000    2.502973
      5          1           0       -1.939529    0.000000    2.136575
      6          1           0       -0.740156   -0.891655    3.119080
      7          1           0       -0.740156    0.891655    3.119080
 ---------------------------------------------------------------------
                    Distance matrix (angstroms):
                    1          2          3          4          5
     1  O    0.000000
     2  C    1.320080   0.000000
     3  O    2.272427   1.331565   0.000000
     4  C    2.561411   1.478447   2.298214   0.000000
     5  H    2.777481   2.146552   3.261363   1.102022   0.000000
     6  H    3.237998   2.108537   2.557960   1.095560   1.788536
     7  H    3.237998   2.108537   2.557960   1.095560   1.788536
                    6          7
     6  H    0.000000
     7  H    1.783311   0.000000
 Stoichiometry    C2H3O2(1-)
 Framework group  CS[SG(C2HO2),X(H2)]
 Deg. of freedom    10
 Full point group                 CS      NOp   2
 RotChk:  IX=0 Diff= 8.57D-01
 Largest Abelian subgroup         CS      NOp   2
 Largest concise Abelian subgroup CS      NOp   2
                         Standard orientation:                         
 ---------------------------------------------------------------------
 Center     Atomic      Atomic             Coordinates (Angstroms)
 Number     Number       Type             X           Y           Z
 ---------------------------------------------------------------------
      1          8           0        0.371269    1.407549    0.000000
      2          6           0        0.000000    0.140753    0.000000
      3          8           0       -1.304252   -0.127559    0.000000
      4          6           0        0.767152   -1.123084    0.000000
      5          1           0        1.854032   -0.941029    0.000000
      6          1           0        0.503459   -1.702453    0.891655
      7          1           0        0.503459   -1.702453   -0.891655
 ---------------------------------------------------------------------
 Rotational constants (GHZ):     12.1978054      9.0519326      5.3730605
 Leave Link  202 at Tue Oct  6 16:19:31 2015, MaxMem=    33554432 cpu:         0.0
 (Enter /group/hpc-share/gaussian/2009D/g09/l301.exe)
 Basis read from rwf:  (5D, 7F)
 No pseudopotential information found on rwf file.
 There are    48 symmetry adapted cartesian basis functions of A'  symmetry.
 There are    18 symmetry adapted cartesian basis functions of A"  symmetry.
 There are    44 symmetry adapted basis functions of A'  symmetry.
 There are    18 symmetry adapted basis functions of A"  symmetry.
    62 basis functions,   112 primitive gaussians,    66 cartesian basis functions
    16 alpha electrons       16 beta electrons
       nuclear repulsion energy       109.8788956323 Hartrees.
 IExCor= 1009 DFT=T Ex+Corr=PBE1PBE ExCW=0 ScaHFX=  0.250000
 ScaDFX=  0.750000  0.750000  1.000000  1.000000 ScalE2=  1.000000  1.000000
 IRadAn=      0 IRanWt=     -1 IRanGd=            0 ICorTp=0 IEmpDi=  4
 NAtoms=    7 NActive=    7 NUniq=    6 SFac= 1.36D+00 NAtFMM=   60 NAOKFM=F Big=F
 Integral buffers will be    131072 words long.
 Raffenetti 2 integral format.
 Two-electron integral symmetry is turned on.
 No density basis found on file   724.
 Leave Link  301 at Tue Oct  6 16:19:31 2015, MaxMem=    33554432 cpu:         0.4
 (Enter /group/hpc-share/gaussian/2009D/g09/l302.exe)
 NPDir=0 NMtPBC=     1 NCelOv=     1 NCel=       1 NClECP=     1 NCelD=      1
         NCelK=      1 NCelE2=     1 NClLst=     1 CellRange=     0.0.
 One-electron integrals computed using PRISM.
 One-electron integral symmetry used in STVInt
 NBasis=    62 RedAO= T EigKep=  4.96D-03  NBF=    44    18
 NBsUse=    62 1.00D-06 EigRej= -1.00D+00 NBFU=    44    18
 Precomputing XC quadrature grid using
 IXCGrd= 4 IRadAn=           0 IRanWt=          -1 IRanGd=           0 AccXCQ= 0.00D+00.
 Generated NRdTot=       0 NPtTot=           0 NUsed=           0 NTot=          32
 NSgBfM=    66    66    66    66    66 MxSgAt=     7 MxSgA2=     7.
 Leave Link  302 at Tue Oct  6 16:19:31 2015, MaxMem=    33554432 cpu:         1.7
 (Enter /group/hpc-share/gaussian/2009D/g09/l303.exe)
 DipDrv:  MaxL=1.
 Leave Link  303 at Tue Oct  6 16:19:32 2015, MaxMem=    33554432 cpu:         0.2
 (Enter /group/hpc-share/gaussian/2009D/g09/l401.exe)
 Initial guess from the checkpoint file:  "acetate.chk"
 B after Tr=     0.000000    0.000000    0.000000
         Rot=    0.951368    0.000000    0.000000    0.308057 Ang=  35.88 deg.
 Guess basis will be translated and rotated to current coordinates.
 JPrj=2 DoOrth=T DoCkMO=T.
 Initial guess orbital symmetries:
       Occupied  (A') (A') (A') (A') (A') (A') (A') (A') (A") (A')
                 (A') (A') (A") (A') (A") (A')
       Virtual   (A') (A') (A') (A') (A') (A') (A') (A') (A') (A')
                 (A') (A') (A') (A') (A') (A') (A') (A') (A') (A')
                 (A') (A') (A') (A') (A') (A') (A') (A') (A') (A')
                 (A') (A") (A") (A") (A") (A") (A") (A") (A") (A")
                 (A") (A") (A") (A") (A") (A")
 The electronic state of the initial guess is 1-A'.
 Generating alternative initial guess.
 ExpMin= 1.22D-01 ExpMax= 2.27D+03 ExpMxC= 3.41D+02 IAcc=1 IRadAn=         1 AccDes= 0.00D+00
 Harris functional with IExCor= 1009 and IRadAn=       1 diagonalized for initial guess.
 HarFok:  IExCor= 1009 AccDes= 0.00D+00 IRadAn=         1 IDoV= 1 UseB2=F ITyADJ=14
 ICtDFT=  3500011 ScaDFX=  1.000000  1.000000  1.000000  1.000000
 FoFCou: FMM=F IPFlag=           0 FMFlag=      100000 FMFlg1=           0
         NFxFlg=           0 DoJE=T BraDBF=F KetDBF=T FulRan=T
         wScrn=  0.000000 ICntrl=     500 IOpCl=  0 I1Cent=   200000004 NGrid=           0
         NMat0=    1 NMatS0=      1 NMatT0=    0 NMatD0=    1 NMtDS0=    0 NMtDT0=    0
 Petite list used in FoFCou.
 Harris En= -228.324598848407    
 Leave Link  401 at Tue Oct  6 16:19:32 2015, MaxMem=    33554432 cpu:         1.7
 (Enter /group/hpc-share/gaussian/2009D/g09/l502.exe)
 Closed shell SCF:
 Using DIIS extrapolation, IDIIS=  1040.
 Integral symmetry usage will be decided dynamically.
 Keep R1 ints in memory in symmetry-blocked form, NReq=2934144.
 IVT=       32744 IEndB=       32744 NGot=    33554432 MDV=    32528432
 LenX=    32528432 LenY=    32523635
 Requested convergence on RMS density matrix=1.00D-08 within 128 cycles.
 Requested convergence on MAX density matrix=1.00D-06.
 Requested convergence on             energy=1.00D-06.
 No special actions if energy rises.
 FoFCou: FMM=F IPFlag=           0 FMFlag=           0 FMFlg1=           0
         NFxFlg=           0 DoJE=F BraDBF=F KetDBF=F FulRan=T
         wScrn=  0.000000 ICntrl=     600 IOpCl=  0 I1Cent=           0 NGrid=           0
         NMat0=    1 NMatS0=   1953 NMatT0=    0 NMatD0=    1 NMtDS0=    0 NMtDT0=    0
 Petite list used in FoFCou.
 Integral accuracy reduced to 1.0D-05 until final iterations.

 Cycle   1  Pass 0  IDiag  1:
 E= -228.032204652605    
 DIIS: error= 8.79D-03 at cycle   1 NSaved=   1.
 NSaved= 1 IEnMin= 1 EnMin= -228.032204652605     IErMin= 1 ErrMin= 8.79D-03
 ErrMax= 8.79D-03  0.00D+00 EMaxC= 1.00D-01 BMatC= 8.97D-03 BMatP= 8.97D-03
 IDIUse=3 WtCom= 9.12D-01 WtEn= 8.79D-02
 Coeff-Com:  0.100D+01
 Coeff-En:   0.100D+01
 Coeff:      0.100D+01
 Gap=     0.583 Goal=   None    Shift=    0.000
 GapD=    0.583 DampG=2.000 DampE=1.000 DampFc=2.0000 IDamp=-1.
 RMSDP=3.31D-03 MaxDP=4.03D-02              OVMax= 4.39D-02

 Cycle   2  Pass 0  IDiag  1:
 E= -228.043216585223     Delta-E=       -0.011011932618 Rises=F Damp=F
 DIIS: error= 4.54D-03 at cycle   2 NSaved=   2.
 NSaved= 2 IEnMin= 2 EnMin= -228.043216585223     IErMin= 2 ErrMin= 4.54D-03
 ErrMax= 4.54D-03  0.00D+00 EMaxC= 1.00D-01 BMatC= 1.54D-03 BMatP= 8.97D-03
 IDIUse=3 WtCom= 9.55D-01 WtEn= 4.54D-02
 Coeff-Com:  0.178D+00 0.822D+00
 Coeff-En:   0.000D+00 0.100D+01
 Coeff:      0.170D+00 0.830D+00
 Gap=     0.220 Goal=   None    Shift=    0.000
 RMSDP=1.36D-03 MaxDP=2.09D-02 DE=-1.10D-02 OVMax= 2.03D-02

 Cycle   3  Pass 0  IDiag  1:
 E= -228.042785034798     Delta-E=        0.000431550425 Rises=F Damp=F
 DIIS: error= 4.68D-03 at cycle   3 NSaved=   3.
 NSaved= 3 IEnMin= 2 EnMin= -228.043216585223     IErMin= 2 ErrMin= 4.54D-03
 ErrMax= 4.68D-03  0.00D+00 EMaxC= 1.00D-01 BMatC= 2.10D-03 BMatP= 1.54D-03
 IDIUse=3 WtCom= 1.28D-01 WtEn= 8.72D-01
 Coeff-Com: -0.875D-02 0.544D+00 0.465D+00
 Coeff-En:   0.000D+00 0.565D+00 0.435D+00
 Coeff:     -0.112D-02 0.562D+00 0.439D+00
 Gap=     0.231 Goal=   None    Shift=    0.000
 RMSDP=8.00D-04 MaxDP=1.15D-02 DE= 4.32D-04 OVMax= 1.64D-02

 Cycle   4  Pass 0  IDiag  1:
 E= -228.044370590101     Delta-E=       -0.001585555304 Rises=F Damp=F
 DIIS: error= 1.25D-03 at cycle   4 NSaved=   4.
 NSaved= 4 IEnMin= 4 EnMin= -228.044370590101     IErMin= 4 ErrMin= 1.25D-03
 ErrMax= 1.25D-03  0.00D+00 EMaxC= 1.00D-01 BMatC= 1.08D-04 BMatP= 1.54D-03
 IDIUse=3 WtCom= 9.87D-01 WtEn= 1.25D-02
 Coeff-Com: -0.215D-01 0.255D+00 0.255D+00 0.511D+00
 Coeff-En:   0.000D+00 0.000D+00 0.000D+00 0.100D+01
 Coeff:     -0.212D-01 0.252D+00 0.252D+00 0.517D+00
 Gap=     0.232 Goal=   None    Shift=    0.000
 RMSDP=2.43D-04 MaxDP=2.80D-03 DE=-1.59D-03 OVMax= 5.46D-03

 Cycle   5  Pass 0  IDiag  1:
 E= -228.044444458058     Delta-E=       -0.000073867957 Rises=F Damp=F
 DIIS: error= 4.75D-04 at cycle   5 NSaved=   5.
 NSaved= 5 IEnMin= 5 EnMin= -228.044444458058     IErMin= 5 ErrMin= 4.75D-04
 ErrMax= 4.75D-04  0.00D+00 EMaxC= 1.00D-01 BMatC= 2.04D-05 BMatP= 1.08D-04
 IDIUse=3 WtCom= 9.95D-01 WtEn= 4.75D-03
 Coeff-Com: -0.123D-01 0.103D+00 0.114D+00 0.336D+00 0.460D+00
 Coeff-En:   0.000D+00 0.000D+00 0.000D+00 0.144D+00 0.856D+00
 Coeff:     -0.123D-01 0.102D+00 0.113D+00 0.335D+00 0.461D+00
 Gap=     0.232 Goal=   None    Shift=    0.000
 RMSDP=8.76D-05 MaxDP=1.22D-03 DE=-7.39D-05 OVMax= 1.96D-03

 Cycle   6  Pass 0  IDiag  1:
 E= -228.044460046693     Delta-E=       -0.000015588635 Rises=F Damp=F
 DIIS: error= 1.17D-04 at cycle   6 NSaved=   6.
 NSaved= 6 IEnMin= 6 EnMin= -228.044460046693     IErMin= 6 ErrMin= 1.17D-04
 ErrMax= 1.17D-04  0.00D+00 EMaxC= 1.00D-01 BMatC= 1.50D-06 BMatP= 2.04D-05
 IDIUse=3 WtCom= 9.99D-01 WtEn= 1.17D-03
 Coeff-Com: -0.234D-02 0.118D-01 0.179D-01 0.961D-01 0.260D+00 0.617D+00
 Coeff-En:   0.000D+00 0.000D+00 0.000D+00 0.000D+00 0.349D-01 0.965D+00
 Coeff:     -0.234D-02 0.118D-01 0.179D-01 0.960D-01 0.259D+00 0.617D+00
 Gap=     0.231 Goal=   None    Shift=    0.000
 RMSDP=1.92D-05 MaxDP=3.15D-04 DE=-1.56D-05 OVMax= 2.77D-04

 Cycle   7  Pass 0  IDiag  1:
 E= -228.044461300507     Delta-E=       -0.000001253814 Rises=F Damp=F
 DIIS: error= 1.77D-05 at cycle   7 NSaved=   7.
 NSaved= 7 IEnMin= 7 EnMin= -228.044461300507     IErMin= 7 ErrMin= 1.77D-05
 ErrMax= 1.77D-05  0.00D+00 EMaxC= 1.00D-01 BMatC= 2.35D-08 BMatP= 1.50D-06
 IDIUse=1 WtCom= 1.00D+00 WtEn= 0.00D+00
 Coeff-Com: -0.244D-04-0.308D-02-0.201D-02 0.885D-02 0.585D-01 0.183D+00
 Coeff-Com:  0.755D+00
 Coeff:     -0.244D-04-0.308D-02-0.201D-02 0.885D-02 0.585D-01 0.183D+00
 Coeff:      0.755D+00
 Gap=     0.231 Goal=   None    Shift=    0.000
 RMSDP=3.63D-06 MaxDP=6.37D-05 DE=-1.25D-06 OVMax= 5.34D-05

 Initial convergence to 1.0D-05 achieved.  Increase integral accuracy.
 Cycle   8  Pass 1  IDiag  1:
 E= -228.044487635044     Delta-E=       -0.000026334537 Rises=F Damp=F
 DIIS: error= 1.59D-05 at cycle   1 NSaved=   1.
 NSaved= 1 IEnMin= 1 EnMin= -228.044487635044     IErMin= 1 ErrMin= 1.59D-05
 ErrMax= 1.59D-05  0.00D+00 EMaxC= 1.00D-01 BMatC= 2.17D-08 BMatP= 2.17D-08
 IDIUse=1 WtCom= 1.00D+00 WtEn= 0.00D+00
 Coeff-Com:  0.100D+01
 Coeff:      0.100D+01
 Gap=     0.231 Goal=   None    Shift=    0.000
 RMSDP=3.63D-06 MaxDP=6.37D-05 DE=-2.63D-05 OVMax= 9.57D-05

 Cycle   9  Pass 1  IDiag  1:
 E= -228.044487672189     Delta-E=       -0.000000037145 Rises=F Damp=F
 DIIS: error= 5.50D-06 at cycle   2 NSaved=   2.
 NSaved= 2 IEnMin= 2 EnMin= -228.044487672189     IErMin= 2 ErrMin= 5.50D-06
 ErrMax= 5.50D-06  0.00D+00 EMaxC= 1.00D-01 BMatC= 2.59D-09 BMatP= 2.17D-08
 IDIUse=1 WtCom= 1.00D+00 WtEn= 0.00D+00
 Coeff-Com:  0.119D+00 0.881D+00
 Coeff:      0.119D+00 0.881D+00
 Gap=     0.231 Goal=   None    Shift=    0.000
 RMSDP=1.91D-06 MaxDP=2.74D-05 DE=-3.71D-08 OVMax= 2.45D-05

 Cycle  10  Pass 1  IDiag  1:
 E= -228.044487672826     Delta-E=       -0.000000000636 Rises=F Damp=F
 DIIS: error= 4.65D-06 at cycle   3 NSaved=   3.
 NSaved= 3 IEnMin= 3 EnMin= -228.044487672826     IErMin= 3 ErrMin= 4.65D-06
 ErrMax= 4.65D-06  0.00D+00 EMaxC= 1.00D-01 BMatC= 2.33D-09 BMatP= 2.59D-09
 IDIUse=1 WtCom= 1.00D+00 WtEn= 0.00D+00
 Coeff-Com: -0.256D-01 0.492D+00 0.533D+00
 Coeff:     -0.256D-01 0.492D+00 0.533D+00
 Gap=     0.231 Goal=   None    Shift=    0.000
 RMSDP=1.16D-06 MaxDP=1.48D-05 DE=-6.36D-10 OVMax= 2.21D-05

 Cycle  11  Pass 1  IDiag  1:
 E= -228.044487674594     Delta-E=       -0.000000001768 Rises=F Damp=F
 DIIS: error= 3.01D-06 at cycle   4 NSaved=   4.
 NSaved= 4 IEnMin= 4 EnMin= -228.044487674594     IErMin= 4 ErrMin= 3.01D-06
 ErrMax= 3.01D-06  0.00D+00 EMaxC= 1.00D-01 BMatC= 4.67D-10 BMatP= 2.33D-09
 IDIUse=1 WtCom= 1.00D+00 WtEn= 0.00D+00
 Coeff-Com: -0.266D-01 0.288D+00 0.365D+00 0.374D+00
 Coeff:     -0.266D-01 0.288D+00 0.365D+00 0.374D+00
 Gap=     0.231 Goal=   None    Shift=    0.000
 RMSDP=3.98D-07 MaxDP=4.85D-06 DE=-1.77D-09 OVMax= 1.09D-05

 Cycle  12  Pass 1  IDiag  1:
 E= -228.044487674967     Delta-E=       -0.000000000373 Rises=F Damp=F
 DIIS: error= 4.22D-07 at cycle   5 NSaved=   5.
 NSaved= 5 IEnMin= 5 EnMin= -228.044487674967     IErMin= 5 ErrMin= 4.22D-07
 ErrMax= 4.22D-07  0.00D+00 EMaxC= 1.00D-01 BMatC= 1.06D-11 BMatP= 4.67D-10
 IDIUse=1 WtCom= 1.00D+00 WtEn= 0.00D+00
 Coeff-Com: -0.522D-02 0.400D-01 0.527D-01 0.156D+00 0.756D+00
 Coeff:     -0.522D-02 0.400D-01 0.527D-01 0.156D+00 0.756D+00
 Gap=     0.231 Goal=   None    Shift=    0.000
 RMSDP=7.00D-08 MaxDP=5.85D-07 DE=-3.73D-10 OVMax= 1.20D-06

 Cycle  13  Pass 1  IDiag  1:
 E= -228.044487674973     Delta-E=       -0.000000000007 Rises=F Damp=F
 DIIS: error= 8.11D-08 at cycle   6 NSaved=   6.
 NSaved= 6 IEnMin= 6 EnMin= -228.044487674973     IErMin= 6 ErrMin= 8.11D-08
 ErrMax= 8.11D-08  0.00D+00 EMaxC= 1.00D-01 BMatC= 5.05D-13 BMatP= 1.06D-11
 IDIUse=1 WtCom= 1.00D+00 WtEn= 0.00D+00
 Coeff-Com: -0.850D-03 0.227D-02 0.224D-02 0.501D-01 0.321D+00 0.626D+00
 Coeff:     -0.850D-03 0.227D-02 0.224D-02 0.501D-01 0.321D+00 0.626D+00
 Gap=     0.231 Goal=   None    Shift=    0.000
 RMSDP=1.60D-08 MaxDP=2.86D-07 DE=-6.82D-12 OVMax= 2.45D-07

 Cycle  14  Pass 1  IDiag  1:
 E= -228.044487674974     Delta-E=       -0.000000000001 Rises=F Damp=F
 DIIS: error= 3.51D-08 at cycle   7 NSaved=   7.
 NSaved= 7 IEnMin= 7 EnMin= -228.044487674974     IErMin= 7 ErrMin= 3.51D-08
 ErrMax= 3.51D-08  0.00D+00 EMaxC= 1.00D-01 BMatC= 8.23D-14 BMatP= 5.05D-13
 IDIUse=1 WtCom= 1.00D+00 WtEn= 0.00D+00
 Coeff-Com: -0.133D-03-0.196D-02-0.292D-02 0.138D-01 0.102D+00 0.324D+00
 Coeff-Com:  0.566D+00
 Coeff:     -0.133D-03-0.196D-02-0.292D-02 0.138D-01 0.102D+00 0.324D+00
 Coeff:      0.566D+00
 Gap=     0.231 Goal=   None    Shift=    0.000
 RMSDP=6.98D-09 MaxDP=1.23D-07 DE=-9.09D-13 OVMax= 1.32D-07

 SCF Done:  E(RPBE1PBE) =  -228.044487675     A.U. after   14 cycles
            NFock= 14  Conv=0.70D-08     -V/T= 2.0081
 KE= 2.262186026349D+02 PE=-7.638547733333D+02 EE= 1.997127873912D+02
 Leave Link  502 at Tue Oct  6 16:19:32 2015, MaxMem=    33554432 cpu:         4.4
 (Enter /group/hpc-share/gaussian/2009D/g09/l701.exe)
 Compute integral first derivatives.
 ... and contract with generalized density number  0.
 Leave Link  701 at Tue Oct  6 16:19:33 2015, MaxMem=    33554432 cpu:         0.9
 (Enter /group/hpc-share/gaussian/2009D/g09/l702.exe)
 L702 exits ... SP integral derivatives will be done elsewhere.
 Leave Link  702 at Tue Oct  6 16:19:33 2015, MaxMem=    33554432 cpu:         0.1
 (Enter /group/hpc-share/gaussian/2009D/g09/l703.exe)
 Compute integral first derivatives, UseDBF=F ICtDFT=           0.
 Integral derivatives from FoFJK, PRISM(SPDF).
 Calling FoFJK, ICntrl=      2127 FMM=F ISym2X=1 I1Cent= 0 IOpClX= 0 NMat=1 NMatS=1 NMatT=0.
 FoFJK:  IHMeth= 1 ICntrl=    2127 DoSepK=F KAlg= 0 I1Cent=   0 FoldK=F
 IRaf=         0 NMat=   1 IRICut=       1 DoRegI=T DoRafI=F ISym2E= 1.
 FoFCou: FMM=F IPFlag=           0 FMFlag=      100000 FMFlg1=         800
         NFxFlg=           0 DoJE=F BraDBF=F KetDBF=F FulRan=T
         wScrn=  0.000000 ICntrl=    2127 IOpCl=  0 I1Cent=           0 NGrid=           0
         NMat0=    1 NMatS0=      1 NMatT0=    0 NMatD0=    1 NMtDS0=    0 NMtDT0=    0
 Petite list used in FoFCou.
 Leave Link  703 at Tue Oct  6 16:19:33 2015, MaxMem=    33554432 cpu:         2.1
 (Enter /group/hpc-share/gaussian/2009D/g09/l716.exe)
 Dipole        = 9.88394601D-01-1.31301285D+00 2.22044605D-16
 ***** Axes restored to original set *****
 -------------------------------------------------------------------
 Center     Atomic                   Forces (Hartrees/Bohr)
 Number     Number              X              Y              Z
 -------------------------------------------------------------------
      1        8          -0.032162278    0.000000000    0.087259450
      2        6           0.142724139    0.000000000   -0.077982648
      3        8          -0.070828523    0.000000000   -0.012446914
      4        6          -0.034470550    0.000000000   -0.006775050
      5        1          -0.007831436    0.000000000    0.001904823
      6        1           0.001284324   -0.002711508    0.004020170
      7        1           0.001284324    0.002711508    0.004020170
 -------------------------------------------------------------------
 Cartesian Forces:  Max     0.142724139 RMS     0.044519182
 Leave Link  716 at Tue Oct  6 16:19:33 2015, MaxMem=    33554432 cpu:         0.1
 (Enter /group/hpc-share/gaussian/2009D/g09/l103.exe)

 GradGradGradGradGradGradGradGradGradGradGradGradGradGradGradGradGradGrad
 Berny optimization.
 Using GEDIIS/GDIIS optimizer.
 FormGI is forming the generalized inverse of G from B-inverse, IUseBI=4.
 Internal  Forces:  Max     0.083107781 RMS     0.029631066
 Search for a local minimum.
 Step number   2 out of a maximum of   31
 All quantities printed in internal units (Hartrees-Bohrs-Radians)
 RMS Force = .29631D-01 SwitMx=.10000D-02 MixMth= 1
 Mixed Optimization -- RFO/linear search
 Update second derivatives using D2CorX and points    1    2
 DE= -5.06D-02 DEPred=-4.47D-02 R= 1.13D+00
 TightC=F SS=  1.41D+00  RLast= 3.01D-01 DXNew= 5.0454D-01 9.0175D-01
 Trust test= 1.13D+00 RLast= 3.01D-01 DXMaxT set to 5.05D-01
 ITU=  1  0
 Use linear search instead of GDIIS.
     Eigenvalues ---    0.01427   0.01427   0.07653   0.07965   0.15984
     Eigenvalues ---    0.16000   0.16131   0.18923   0.26683   0.34830
     Eigenvalues ---    0.34928   0.35229   0.35579   0.40000   0.45625
 RFO step:  Lambda=-3.82945946D-03 EMin= 1.42735158D-02
 Quartic linear search produced a step of  1.22170.
 Iteration  1 RMS(Cart)=  0.08995014 RMS(Int)=  0.00935842
 Iteration  2 RMS(Cart)=  0.01021988 RMS(Int)=  0.00006506
 Iteration  3 RMS(Cart)=  0.00003699 RMS(Int)=  0.00005866
 Iteration  4 RMS(Cart)=  0.00000000 RMS(Int)=  0.00005866
 ITry= 1 IFail=0 DXMaxC= 2.92D-01 DCOld= 1.00D+10 DXMaxT= 5.05D-01 DXLimC= 3.00D+00 Rises=F
 ClnCor:  largest displacement from symmetrization is 1.44D-10 for atom     5.
 Variable       Old X    -DE/DX   Delta X   Delta X   Delta X     New X
                                 (Linear)    (Quad)   (Total)
    R1        2.49459  -0.08311  -0.18451  -0.02488  -0.20939   2.28520
    R2        2.51629  -0.07046  -0.15799  -0.01790  -0.17590   2.34039
    R3        2.79386   0.02854   0.06568   0.02294   0.08862   2.88248
    R4        2.08252   0.00675   0.03006  -0.02412   0.00595   2.08847
    R5        2.07031   0.00466   0.01514  -0.00423   0.01092   2.08122
    R6        2.07031   0.00466   0.01514  -0.00423   0.01092   2.08122
    A1        2.05878   0.04679   0.18099  -0.04429   0.13671   2.19549
    A2        2.31095  -0.05733  -0.18444  -0.03929  -0.22373   2.08721
    A3        1.91346   0.01054   0.00345   0.08357   0.08703   2.00049
    A4        1.95039   0.00716   0.04857  -0.04985  -0.00138   1.94900
    A5        1.90411  -0.00064  -0.00797   0.01479   0.00671   1.91082
    A6        1.90411  -0.00064  -0.00797   0.01479   0.00671   1.91082
    A7        1.90154  -0.00199  -0.01111   0.00989  -0.00131   1.90023
    A8        1.90154  -0.00199  -0.01111   0.00989  -0.00131   1.90023
    A9        1.90160  -0.00208  -0.01103   0.00139  -0.00977   1.89183
    D1        0.00000   0.00000   0.00000   0.00000   0.00000   0.00000
    D2        2.10380   0.00164   0.01149  -0.00952   0.00196   2.10576
    D3       -2.10380  -0.00164  -0.01149   0.00952  -0.00196  -2.10576
    D4        3.14159   0.00000   0.00000   0.00000   0.00000   3.14159
    D5       -1.03779   0.00164   0.01149  -0.00952   0.00196  -1.03583
    D6        1.03779  -0.00164  -0.01149   0.00952  -0.00196   1.03583
         Item               Value     Threshold  Converged?
 Maximum Force            0.083108     0.000450     NO 
 RMS     Force            0.029631     0.000300     NO 
 Maximum Displacement     0.291695     0.001800     NO 
 RMS     Displacement     0.097076     0.001200     NO 
 Predicted change in Energy=-3.531926D-02
 Lowest energy point so far.  Saving SCF results.
 GradGradGradGradGradGradGradGradGradGradGradGradGradGradGradGradGradGrad

 Leave Link  103 at Tue Oct  6 16:19:33 2015, MaxMem=    33554432 cpu:         0.0
 (Enter /group/hpc-share/gaussian/2009D/g09/l202.exe)
                          Input orientation:                          
 ---------------------------------------------------------------------
 Center     Atomic      Atomic             Coordinates (Angstroms)
 Number     Number       Type             X           Y           Z
 ---------------------------------------------------------------------
      1          8           0       -0.166907    0.000000    0.232595
      2          6           0        0.170095    0.000000    1.393962
      3          8           0        1.336740    0.000000    1.809629
      4          6           0       -0.893892    0.000000    2.486941
      5          1           0       -1.914488    0.000000    2.062936
      6          1           0       -0.770812   -0.893220    3.119358
      7          1           0       -0.770812    0.893220    3.119358
 ---------------------------------------------------------------------
                    Distance matrix (angstroms):
                    1          2          3          4          5
     1  O    0.000000
     2  C    1.209274   0.000000
     3  O    2.178988   1.238483   0.000000
     4  C    2.368667   1.525342   2.331195   0.000000
     5  H    2.530650   2.189295   3.261081   1.105168   0.000000
     6  H    3.081549   2.158735   2.637235   1.101336   1.794955
     7  H    3.081549   2.158735   2.637235   1.101336   1.794955
                    6          7
     6  H    0.000000
     7  H    1.786439   0.000000
 Stoichiometry    C2H3O2(1-)
 Framework group  CS[SG(C2HO2),X(H2)]
 Deg. of freedom    10
 Full point group                 CS      NOp   2
 RotChk:  IX=0 Diff= 6.92D-01
 Largest Abelian subgroup         CS      NOp   2
 Largest concise Abelian subgroup CS      NOp   2
                         Standard orientation:                         
 ---------------------------------------------------------------------
 Center     Atomic      Atomic             Coordinates (Angstroms)
 Number     Number       Type             X           Y           Z
 ---------------------------------------------------------------------
      1          8           0        0.983510    0.897123    0.000000
      2          6           0        0.000000    0.193524    0.000000
      3          8           0       -1.173601    0.589126    0.000000
      4          6           0        0.159209   -1.323487    0.000000
      5          1           0        1.223258   -1.622145    0.000000
      6          1           0       -0.328891   -1.744033    0.893220
      7          1           0       -0.328891   -1.744033   -0.893220
 ---------------------------------------------------------------------
 Rotational constants (GHZ):     12.2882744     10.1362795      5.7580565
 Leave Link  202 at Tue Oct  6 16:19:33 2015, MaxMem=    33554432 cpu:         0.0
 (Enter /group/hpc-share/gaussian/2009D/g09/l301.exe)
 Basis read from rwf:  (5D, 7F)
 No pseudopotential information found on rwf file.
 There are    48 symmetry adapted cartesian basis functions of A'  symmetry.
 There are    18 symmetry adapted cartesian basis functions of A"  symmetry.
 There are    44 symmetry adapted basis functions of A'  symmetry.
 There are    18 symmetry adapted basis functions of A"  symmetry.
    62 basis functions,   112 primitive gaussians,    66 cartesian basis functions
    16 alpha electrons       16 beta electrons
       nuclear repulsion energy       114.0111011708 Hartrees.
 IExCor= 1009 DFT=T Ex+Corr=PBE1PBE ExCW=0 ScaHFX=  0.250000
 ScaDFX=  0.750000  0.750000  1.000000  1.000000 ScalE2=  1.000000  1.000000
 IRadAn=      0 IRanWt=     -1 IRanGd=            0 ICorTp=0 IEmpDi=  4
 NAtoms=    7 NActive=    7 NUniq=    6 SFac= 1.36D+00 NAtFMM=   60 NAOKFM=F Big=F
 Integral buffers will be    131072 words long.
 Raffenetti 2 integral format.
 Two-electron integral symmetry is turned on.
 No density basis found on file   724.
 Leave Link  301 at Tue Oct  6 16:19:34 2015, MaxMem=    33554432 cpu:         0.5
 (Enter /group/hpc-share/gaussian/2009D/g09/l302.exe)
 NPDir=0 NMtPBC=     1 NCelOv=     1 NCel=       1 NClECP=     1 NCelD=      1
         NCelK=      1 NCelE2=     1 NClLst=     1 CellRange=     0.0.
 One-electron integrals computed using PRISM.
 One-electron integral symmetry used in STVInt
 NBasis=    62 RedAO= T EigKep=  6.00D-03  NBF=    44    18
 NBsUse=    62 1.00D-06 EigRej= -1.00D+00 NBFU=    44    18
 Precomputing XC quadrature grid using
 IXCGrd= 4 IRadAn=           0 IRanWt=          -1 IRanGd=           0 AccXCQ= 0.00D+00.
 Generated NRdTot=       0 NPtTot=           0 NUsed=           0 NTot=          32
 NSgBfM=    66    66    66    66    66 MxSgAt=     7 MxSgA2=     7.
 Leave Link  302 at Tue Oct  6 16:19:34 2015, MaxMem=    33554432 cpu:         1.5
 (Enter /group/hpc-share/gaussian/2009D/g09/l303.exe)
 DipDrv:  MaxL=1.
 Leave Link  303 at Tue Oct  6 16:19:34 2015, MaxMem=    33554432 cpu:         0.1
 (Enter /group/hpc-share/gaussian/2009D/g09/l401.exe)
 Initial guess from the checkpoint file:  "acetate.chk"
 B after Tr=     0.000000    0.000000    0.000000
         Rot=    0.965550    0.000000    0.000000    0.260219 Ang=  30.17 deg.
 Guess basis will be translated and rotated to current coordinates.
 JPrj=2 DoOrth=T DoCkMO=T.
 Initial guess orbital symmetries:
       Occupied  (A') (A') (A') (A') (A') (A') (A') (A') (A") (A')
                 (A') (A') (A") (A') (A") (A')
       Virtual   (A') (A') (A') (A') (A') (A') (A') (A') (A') (A')
                 (A') (A') (A') (A') (A') (A') (A') (A') (A') (A')
                 (A') (A') (A') (A') (A') (A') (A') (A') (A') (A')
[...]

 Cycle   6  Pass 1  IDiag  1:
 E= -228.073730441950     Delta-E=       -0.000000000449 Rises=F Damp=F
 DIIS: error= 8.09D-07 at cycle   6 NSaved=   6.
 NSaved= 6 IEnMin= 6 EnMin= -228.073730441950     IErMin= 6 ErrMin= 8.09D-07
 ErrMax= 8.09D-07  0.00D+00 EMaxC= 1.00D-01 BMatC= 3.24D-11 BMatP= 5.87D-10
 IDIUse=1 WtCom= 1.00D+00 WtEn= 0.00D+00
 Coeff-Com: -0.799D-03 0.268D-02 0.717D-02 0.103D+00 0.218D+00 0.670D+00
 Coeff:     -0.799D-03 0.268D-02 0.717D-02 0.103D+00 0.218D+00 0.670D+00
 Gap=     0.264 Goal=   None    Shift=    0.000
 RMSDP=1.22D-07 MaxDP=1.87D-06 DE=-4.49D-10 OVMax= 2.06D-06

 Cycle   7  Pass 1  IDiag  1:
 E= -228.073730441973     Delta-E=       -0.000000000023 Rises=F Damp=F
 DIIS: error= 1.80D-07 at cycle   7 NSaved=   7.
 NSaved= 7 IEnMin= 7 EnMin= -228.073730441973     IErMin= 7 ErrMin= 1.80D-07
 ErrMax= 1.80D-07  0.00D+00 EMaxC= 1.00D-01 BMatC= 1.89D-12 BMatP= 3.24D-11
 IDIUse=1 WtCom= 1.00D+00 WtEn= 0.00D+00
 Coeff-Com:  0.105D-03-0.317D-02-0.189D-02 0.102D-01 0.759D-01 0.303D+00
 Coeff-Com:  0.616D+00
 Coeff:      0.105D-03-0.317D-02-0.189D-02 0.102D-01 0.759D-01 0.303D+00
 Coeff:      0.616D+00
 Gap=     0.264 Goal=   None    Shift=    0.000
 RMSDP=3.41D-08 MaxDP=7.95D-07 DE=-2.34D-11 OVMax= 3.67D-07

 Cycle   8  Pass 1  IDiag  1:
 E= -228.073730441976     Delta-E=       -0.000000000003 Rises=F Damp=F
 DIIS: error= 1.79D-08 at cycle   8 NSaved=   8.
 NSaved= 8 IEnMin= 8 EnMin= -228.073730441976     IErMin= 8 ErrMin= 1.79D-08
 ErrMax= 1.79D-08  0.00D+00 EMaxC= 1.00D-01 BMatC= 3.78D-14 BMatP= 1.89D-12
 IDIUse=1 WtCom= 1.00D+00 WtEn= 0.00D+00
 Coeff-Com:  0.517D-04-0.956D-03-0.682D-03 0.755D-03 0.183D-01 0.632D-01
 Coeff-Com:  0.174D+00 0.746D+00
 Coeff:      0.517D-04-0.956D-03-0.682D-03 0.755D-03 0.183D-01 0.632D-01
 Coeff:      0.174D+00 0.746D+00
 Gap=     0.264 Goal=   None    Shift=    0.000
 RMSDP=4.89D-09 MaxDP=5.64D-08 DE=-2.73D-12 OVMax= 6.76D-08

 SCF Done:  E(RPBE1PBE) =  -228.073730442     A.U. after    8 cycles
            NFock=  8  Conv=0.49D-08     -V/T= 2.0071
 KE= 2.264567882845D+02 PE=-7.678621130515D+02 EE= 2.014910141909D+02
 Leave Link  502 at Tue Oct  6 16:19:45 2015, MaxMem=    33554432 cpu:         4.0
 (Enter /group/hpc-share/gaussian/2009D/g09/l701.exe)
 Compute integral first derivatives.
 ... and contract with generalized density number  0.
 Leave Link  701 at Tue Oct  6 16:19:46 2015, MaxMem=    33554432 cpu:         1.6
 (Enter /group/hpc-share/gaussian/2009D/g09/l702.exe)
 L702 exits ... SP integral derivatives will be done elsewhere.
 Leave Link  702 at Tue Oct  6 16:19:46 2015, MaxMem=    33554432 cpu:         0.2
 (Enter /group/hpc-share/gaussian/2009D/g09/l703.exe)
 Compute integral first derivatives, UseDBF=F ICtDFT=           0.
 Integral derivatives from FoFJK, PRISM(SPDF).
 Calling FoFJK, ICntrl=      2127 FMM=F ISym2X=1 I1Cent= 0 IOpClX= 0 NMat=1 NMatS=1 NMatT=0.
 FoFJK:  IHMeth= 1 ICntrl=    2127 DoSepK=F KAlg= 0 I1Cent=   0 FoldK=F
 IRaf=         0 NMat=   1 IRICut=       1 DoRegI=T DoRafI=F ISym2E= 1.
 FoFCou: FMM=F IPFlag=           0 FMFlag=      100000 FMFlg1=         800
         NFxFlg=           0 DoJE=F BraDBF=F KetDBF=F FulRan=T
         wScrn=  0.000000 ICntrl=    2127 IOpCl=  0 I1Cent=           0 NGrid=           0
         NMat0=    1 NMatS0=      1 NMatT0=    0 NMatD0=    1 NMtDS0=    0 NMtDT0=    0
 Petite list used in FoFCou.
 Leave Link  703 at Tue Oct  6 16:19:47 2015, MaxMem=    33554432 cpu:         2.2
 (Enter /group/hpc-share/gaussian/2009D/g09/l716.exe)
 Dipole        = 2.46945489D-02-1.21937469D+00 0.00000000D+00
 ***** Axes restored to original set *****
 -------------------------------------------------------------------
 Center     Atomic                   Forces (Hartrees/Bohr)
 Number     Number              X              Y              Z
 -------------------------------------------------------------------
      1        8          -0.000023856    0.000000000   -0.000138515
      2        6          -0.000065504    0.000000000   -0.000075534
      3        8           0.000228823    0.000000000    0.000102411
      4        6          -0.000147247    0.000000000    0.000349144
      5        1          -0.000044083    0.000000000   -0.000014710
      6        1           0.000025934    0.000006361   -0.000111398
      7        1           0.000025934   -0.000006361   -0.000111398
 -------------------------------------------------------------------
 Cartesian Forces:  Max     0.000349144 RMS     0.000112247
 Leave Link  716 at Tue Oct  6 16:19:47 2015, MaxMem=    33554432 cpu:         0.2
 (Enter /group/hpc-share/gaussian/2009D/g09/l103.exe)

 GradGradGradGradGradGradGradGradGradGradGradGradGradGradGradGradGradGrad
 Berny optimization.
 Using GEDIIS/GDIIS optimizer.
 FormGI is forming the generalized inverse of G from B-inverse, IUseBI=4.
 Internal  Forces:  Max     0.000249510 RMS     0.000088030
 Search for a local minimum.
 Step number   7 out of a maximum of   31
 All quantities printed in internal units (Hartrees-Bohrs-Radians)
 RMS Force = .88030D-04 SwitMx=.10000D-02 MixMth= 2
 Mixed Optimization -- En-DIIS/RFO-DIIS
 Swapping is turned off.
 Update second derivatives using D2CorX and points    2    3    4    5    6
                                                      7
 DE= -3.11D-06 DEPred=-2.74D-06 R= 1.14D+00
 TightC=F SS=  1.41D+00  RLast= 5.16D-03 DXNew= 1.4270D+00 1.5469D-02
 Trust test= 1.14D+00 RLast= 5.16D-03 DXMaxT set to 8.49D-01
 ITU=  1  1  1  1  1  1  0
     Eigenvalues ---    0.01427   0.01427   0.07473   0.07843   0.12696
     Eigenvalues ---    0.16000   0.16701   0.20743   0.24601   0.33242
     Eigenvalues ---    0.34928   0.35117   0.35560   0.57685   0.76698
 En-DIIS/RFO-DIIS IScMMF=        0 using points:     7    6
 RFO step:  Lambda=-2.96772218D-07.
 NNeg= 0 NP= 2 Switch=  2.50D-03 Rises=F DC=  3.11D-06 SmlDif=  1.00D-05
 RMS Error=  0.1715227575D-03 NUsed= 2 EDIIS=F
 DidBck=F Rises=F RFO-DIIS coefs:    1.14948   -0.14948
 Iteration  1 RMS(Cart)=  0.00044382 RMS(Int)=  0.00000024
 Iteration  2 RMS(Cart)=  0.00000018 RMS(Int)=  0.00000011
 ITry= 1 IFail=0 DXMaxC= 8.66D-04 DCOld= 1.00D+10 DXMaxT= 8.49D-01 DXLimC= 3.00D+00 Rises=F
 ClnCor:  largest displacement from symmetrization is 4.93D-11 for atom     5.
 Variable       Old X    -DE/DX   Delta X   Delta X   Delta X     New X
                                 (Linear)    (Quad)   (Total)
    R1        2.35358   0.00014   0.00007   0.00003   0.00010   2.35368
    R2        2.35592   0.00025  -0.00012   0.00054   0.00042   2.35634
    R3        2.96702   0.00018   0.00050   0.00049   0.00098   2.96801
    R4        2.08896   0.00005  -0.00006   0.00016   0.00010   2.08906
    R5        2.09343  -0.00007  -0.00004  -0.00019  -0.00023   2.09319
    R6        2.09343  -0.00007  -0.00004  -0.00019  -0.00023   2.09319
    A1        2.26646  -0.00001   0.00022  -0.00019   0.00003   2.26649
    A2        2.02222   0.00004   0.00005   0.00022   0.00027   2.02249
    A3        1.99450  -0.00004  -0.00027  -0.00003  -0.00030   1.99421
    A4        1.95774   0.00004  -0.00022   0.00030   0.00008   1.95782
    A5        1.91626  -0.00010  -0.00012  -0.00065  -0.00077   1.91549
    A6        1.91626  -0.00010  -0.00012  -0.00065  -0.00077   1.91549
    A7        1.90821   0.00003   0.00023   0.00010   0.00033   1.90854
    A8        1.90821   0.00003   0.00023   0.00010   0.00033   1.90854
    A9        1.85426   0.00011   0.00001   0.00082   0.00083   1.85509
    D1        0.00000   0.00000   0.00000   0.00000   0.00000   0.00000
    D2        2.12536  -0.00001   0.00006  -0.00012  -0.00006   2.12531
    D3       -2.12536   0.00001  -0.00006   0.00012   0.00006  -2.12531
    D4        3.14159   0.00000   0.00000   0.00000   0.00000   3.14159
    D5       -1.01623  -0.00001   0.00006  -0.00012  -0.00006  -1.01629
    D6        1.01623   0.00001  -0.00006   0.00012   0.00006   1.01629
         Item               Value     Threshold  Converged?
 Maximum Force            0.000250     0.000450     YES
 RMS     Force            0.000088     0.000300     YES
 Maximum Displacement     0.000866     0.001800     YES
 RMS     Displacement     0.000444     0.001200     YES
 Predicted change in Energy=-3.089201D-07
 Optimization completed.
    -- Stationary point found.
                           ----------------------------
                           !   Optimized Parameters   !
                           ! (Angstroms and Degrees)  !
 --------------------------                            --------------------------
 ! Name  Definition              Value          Derivative Info.                !
 --------------------------------------------------------------------------------
 ! R1    R(1,2)                  1.2455         -DE/DX =    0.0001              !
 ! R2    R(2,3)                  1.2467         -DE/DX =    0.0002              !
 ! R3    R(2,4)                  1.5701         -DE/DX =    0.0002              !
 ! R4    R(4,5)                  1.1054         -DE/DX =    0.0                 !
 ! R5    R(4,6)                  1.1078         -DE/DX =   -0.0001              !
 ! R6    R(4,7)                  1.1078         -DE/DX =   -0.0001              !
 ! A1    A(1,2,3)              129.8586         -DE/DX =    0.0                 !
 ! A2    A(1,2,4)              115.8649         -DE/DX =    0.0                 !
 ! A3    A(3,2,4)              114.2766         -DE/DX =    0.0                 !
 ! A4    A(2,4,5)              112.1703         -DE/DX =    0.0                 !
 ! A5    A(2,4,6)              109.7934         -DE/DX =   -0.0001              !
 ! A6    A(2,4,7)              109.7934         -DE/DX =   -0.0001              !
 ! A7    A(5,4,6)              109.3324         -DE/DX =    0.0                 !
 ! A8    A(5,4,7)              109.3324         -DE/DX =    0.0                 !
 ! A9    A(6,4,7)              106.2415         -DE/DX =    0.0001              !
 ! D1    D(1,2,4,5)              0.0            -DE/DX =    0.0                 !
 ! D2    D(1,2,4,6)            121.7744         -DE/DX =    0.0                 !
 ! D3    D(1,2,4,7)           -121.7744         -DE/DX =    0.0                 !
 ! D4    D(3,2,4,5)            180.0            -DE/DX =    0.0                 !
 ! D5    D(3,2,4,6)            -58.2256         -DE/DX =    0.0                 !
 ! D6    D(3,2,4,7)             58.2256         -DE/DX =    0.0                 !
 --------------------------------------------------------------------------------
 Lowest energy point so far.  Saving SCF results.
 GradGradGradGradGradGradGradGradGradGradGradGradGradGradGradGradGradGrad

 Largest change from initial coordinates is atom    5       2.000 Angstoms.
 Leave Link  103 at Tue Oct  6 16:19:47 2015, MaxMem=    33554432 cpu:         0.0
 (Enter /group/hpc-share/gaussian/2009D/g09/l202.exe)
                          Input orientation:                          
 ---------------------------------------------------------------------
 Center     Atomic      Atomic             Coordinates (Angstroms)
 Number     Number       Type             X           Y           Z
 ---------------------------------------------------------------------
      1          8           0       -0.199298    0.000000    0.201018
      2          6           0        0.207437    0.000000    1.378190
      3          8           0        1.372901    0.000000    1.820851
      4          6           0       -0.904213    0.000000    2.486969
      5          1           0       -1.922492    0.000000    2.056752
      6          1           0       -0.782205   -0.886127    3.140499
      7          1           0       -0.782205    0.886127    3.140499
 ---------------------------------------------------------------------
                    Distance matrix (angstroms):
                    1          2          3          4          5
     1  O    0.000000
     2  C    1.245459   0.000000
     3  O    2.257359   1.246697   0.000000
     4  C    2.392169   1.570082   2.372544   0.000000
     5  H    2.532418   2.235407   3.303826   1.105431   0.000000
     6  H    3.124987   2.206885   2.677904   1.107794   1.805542
     7  H    3.124987   2.206885   2.677904   1.107794   1.805542
                    6          7
     6  H    0.000000
     7  H    1.772254   0.000000
 Stoichiometry    C2H3O2(1-)
 Framework group  CS[SG(C2HO2),X(H2)]
 Deg. of freedom    10
 Full point group                 CS      NOp   2
 RotChk:  IX=0 Diff= 1.30D-15
 Largest Abelian subgroup         CS      NOp   2
 Largest concise Abelian subgroup CS      NOp   2
                         Standard orientation:                         
 ---------------------------------------------------------------------
 Center     Atomic      Atomic             Coordinates (Angstroms)
 Number     Number       Type             X           Y           Z
 ---------------------------------------------------------------------
      1          8           0        1.104354    0.796913    0.000000
      2          6           0        0.000000    0.221092    0.000000
      3          8           0       -1.150935    0.700263    0.000000
      4          6           0        0.045841   -1.348320    0.000000
      5          1           0        1.081286   -1.735400    0.000000
      6          1           0       -0.491847   -1.739318    0.886127
      7          1           0       -0.491847   -1.739318   -0.886127
 ---------------------------------------------------------------------
 Rotational constants (GHZ):     11.4972183      9.9721278      5.5250596
 Leave Link  202 at Tue Oct  6 16:19:48 2015, MaxMem=    33554432 cpu:         0.1
 (Enter /group/hpc-share/gaussian/2009D/g09/l601.exe)
 Copying SCF densities to generalized density rwf, IOpCl= 0 IROHF=0.

 **********************************************************************

            Population analysis using the SCF density.

 **********************************************************************

 Orbital symmetries:
       Occupied  (A') (A') (A') (A') (A') (A') (A') (A') (A") (A')
                 (A') (A') (A") (A") (A') (A')
       Virtual   (A') (A") (A') (A") (A') (A') (A') (A") (A') (A')
                 (A") (A') (A') (A') (A") (A') (A') (A') (A') (A')
                 (A") (A') (A") (A') (A') (A") (A') (A") (A') (A')
                 (A") (A') (A") (A') (A') (A') (A") (A') (A") (A')
                 (A") (A') (A") (A') (A') (A')
 The electronic state is 1-A'.
 Alpha  occ. eigenvalues --  -18.91058 -18.90804 -10.08429 -10.02565  -0.80448
 Alpha  occ. eigenvalues --   -0.71623  -0.52259  -0.28662  -0.24097  -0.23130
 Alpha  occ. eigenvalues --   -0.20968  -0.17189  -0.15272  -0.02704  -0.01565
 Alpha  occ. eigenvalues --   -0.01037
 Alpha virt. eigenvalues --    0.25352   0.27949   0.31395   0.34719   0.43248
 Alpha virt. eigenvalues --    0.50036   0.58405   0.66685   0.74358   0.76340
 Alpha virt. eigenvalues --    0.77923   0.81277   0.86355   0.88410   0.90042
 Alpha virt. eigenvalues --    0.91717   0.93494   1.04992   1.16527   1.20270
 Alpha virt. eigenvalues --    1.26354   1.36835   1.38100   1.40718   1.65901
 Alpha virt. eigenvalues --    1.68193   1.82853   1.86876   1.98592   2.00424
 Alpha virt. eigenvalues --    2.21563   2.27310   2.37251   2.40759   2.46123
 Alpha virt. eigenvalues --    2.63522   2.92125   2.93840   2.95438   3.01655
 Alpha virt. eigenvalues --    3.24743   3.41320   3.53840   3.61774   3.84672
 Alpha virt. eigenvalues --    3.96526
          Condensed to atoms (all electrons):
               1          2          3          4          5          6
     1  O    8.036622   0.649086  -0.090017  -0.175706   0.024387   0.004541
     2  C    0.649086   4.423778   0.617544   0.174523   0.011437   0.003126
     3  O   -0.090017   0.617544   8.090199  -0.185360   0.009088   0.011613
     4  C   -0.175706   0.174523  -0.185360   5.745049   0.242532   0.293956
     5  H    0.024387   0.011437   0.009088   0.242532   0.688319  -0.015597
     6  H    0.004541   0.003126   0.011613   0.293956  -0.015597   0.654310
     7  H    0.004541   0.003126   0.011613   0.293956  -0.015597  -0.019085
               7
     1  O    0.004541
     2  C    0.003126
     3  O    0.011613
     4  C    0.293956
     5  H   -0.015597
     6  H   -0.019085
     7  H    0.654310
 Mulliken charges:
               1
     1  O   -0.453454
     2  C    0.117382
     3  O   -0.464680
     4  C   -0.388949
     5  H    0.055430
     6  H    0.067135
     7  H    0.067135
 Sum of Mulliken charges =  -1.00000
 Mulliken charges with hydrogens summed into heavy atoms:
               1
     1  O   -0.453454
     2  C    0.117382
     3  O   -0.464680
     4  C   -0.199248
 Electronic spatial extent (au):  <R**2>=            255.0317
 Charge=             -1.0000 electrons
 Dipole moment (field-independent basis, Debye):
    X=              0.0628    Y=             -3.0993    Z=              0.0000  Tot=              3.1000
 Quadrupole moment (field-independent basis, Debye-Ang):
   XX=            -33.5634   YY=            -31.1264   ZZ=            -24.4549
   XY=              0.0167   XZ=              0.0000   YZ=              0.0000
 Traceless Quadrupole moment (field-independent basis, Debye-Ang):
   XX=             -3.8485   YY=             -1.4115   ZZ=              5.2600
   XY=              0.0167   XZ=              0.0000   YZ=              0.0000
 Octapole moment (field-independent basis, Debye-Ang**2):
  XXX=              0.4775  YYY=              9.0139  ZZZ=              0.0000  XYY=             -0.8622
  XXY=             -3.9990  XXZ=              0.0000  XZZ=             -0.3123  YZZ=              2.3354
  YYZ=              0.0000  XYZ=              0.0000
 Hexadecapole moment (field-independent basis, Debye-Ang**3):
 XXXX=           -132.2967 YYYY=           -191.2599 ZZZZ=            -29.5107 XXXY=              0.0709
 XXXZ=              0.0000 YYYX=              0.7275 YYYZ=              0.0000 ZZZX=              0.0000
 ZZZY=              0.0000 XXYY=            -53.8922 XXZZ=            -25.0356 YYZZ=            -34.0995
 XXYZ=              0.0000 YYXZ=              0.0000 ZZXY=              0.6469
 N-N= 1.118405801341D+02 E-N=-7.678621128160D+02  KE= 2.264567882845D+02
 Symmetry A'   KE= 2.166796492406D+02
 Symmetry A"   KE= 9.777139043952D+00
 No NMR shielding tensors so no spin-rotation constants.
 Leave Link  601 at Tue Oct  6 16:19:48 2015, MaxMem=    33554432 cpu:         1.4
 (Enter /group/hpc-share/gaussian/2009D/g09/l9999.exe)
 B after Tr=     0.132017    0.000000   -0.048877
         Rot=    0.999731    0.000000    0.023196    0.000000 Ang=   2.66 deg.
 Final structure in terms of initial Z-matrix:
 O
 C,1,co2
 O,2,oc3,1,oco3
 C,2,cc4,3,cco4,1,dih4,0
 H,4,hc5,2,hcc5,3,dih5,0
 H,4,hc6,2,hcc6,5,dih6,0
 H,4,hc7,2,hcc7,5,dih7,0
      Variables:
 co2=1.24545895
 oc3=1.24669739
 oco3=129.85855449
 cc4=1.57008169
 cco4=114.27658481
 dih4=180.
 hc5=1.10543095
 hcc5=112.17034058
 dih5=180.
 hc6=1.10779437
 hcc6=109.79343991
 dih6=121.77442233
 hc7=1.10779437
 hcc7=109.79343991
 dih7=-121.77442233
 1\1\GINC-HPC-CN13\FOpt\RPBE1PBE\Gen\C2H3O2(1-)\6498IVANOVM\06-Oct-2015
 \0\\#P PBE1PBE/gen opt\\acetate\\-1,1\O,-0.2707271195,0.,0.2019375987\
 C,0.1360085369,0.,1.3791096791\O,1.3014723035,0.,1.8217704854\C,-0.975
 6421799,0.,2.4878879248\H,-1.9939206559,0.,2.0576710789\H,-0.853633520
 3,-0.8861268362,3.1414179492\H,-0.8536335203,0.8861268362,3.1414179492
 \\Version=EM64L-G09RevD.01\State=1-A'\HF=-228.0737304\RMSD=4.886e-09\R
 MSF=1.122e-04\Dipole=-0.8557753,0.,0.868984\Quadrupole=-2.0182665,3.91
 06644,-1.8923979,0.,-0.9038398,0.\PG=CS [SG(C2H1O2),X(H2)]\\@


 Cherishing children is the mark of a civilized society.
 -- Joan Ganz Cooney
 Job cpu time:       0 days  0 hours  1 minutes 38.4 seconds.
 File lengths (MBytes):  RWF=      5 Int=      0 D2E=      0 Chk=      1 Scr=      1
 Normal termination of Gaussian 09 at Tue Oct  6 16:19:48 2015.
