 Entering Gaussian System, Link 0=g09
 Input=ammonium.com
 Output=ammonium.log
 AtFile(1): ammonium.zmat
             n
             h   1 hn2
             h    1 hn3         2 hnh3
             h    1 hn4         2 hnh4          3 dih4
             h    1 hn5         2 hnh5          3 dih5
            
            hn2         1.089000
            hn3         1.089000
            hnh3        109.471
            hn4         1.089000
            hnh4        109.471
            dih4        120.000
            hn5         1.089000
            hnh5        109.471
            dih5       -120.000
 AtFile(1): /home/MARQNET/talipovm/basis-library/def2-SV(P)+d.gbs
            !  Def2-SV(P)  EMSL  Basis Set Exchange Library   3/29/11 8:36 AM
            ! Elements                             References
            ! --------                             ----------
            ! H He Li Be B C N O F Ne Na Mg Al Si P S Cl Ar K Ca Sc Ti V Cr Mn Fe Co Ni Cu Zn Ga Ge As Se Br Kr Rb Sr Y Zr Nb Mo Tc Ru Rh Pd Ag Cd In Sn Sb Te I Xe Cs Ba La Hf Ta W Re Os Ir Pt Au Hg Tl Pb Bi Po At Rn : F. Weigend and R. Ahlrichs, Phys. Chem. Chem. Phys., Balanced basis sets of split valence, triple zeta valence and quadruple zeta valence
            ! quality for H to Rn: Design and assessment of accuracy 7, 3297 (2005).
            !
            -H     0
            S   3   1.00
                 13.0107010              0.19682158E-01
                  1.9622572              0.13796524
                  0.44453796             0.47831935
            S   1   1.00
                  0.12194962             1.0000000
            ****
            -B     0
            S   5   1.00
                839.31830086            -0.55929201074E-02
                126.26464843            -0.41565520771E-01
                 28.620600763           -0.18299816983
                  7.8793722710          -0.46540391866
                  2.4088857172          -0.44173884791
            S   1   1.00
                  0.25105109036          1.0000000
            S   1   1.00
                  0.83648866069E-01            1.0000000
            P   3   1.00
                  6.0332223619          -0.35603672456E-01
                  1.2499157866          -0.19895775769
                  0.33871676350         -0.50850202618
            P   1   1.00
                  0.96415632351E-01            1.0000000
            D   1   1.00
                  0.5000000              1.0000000
            ****
            -C     0
            S   5   1.00
               1238.4016938              0.54568832082E-02
                186.29004992             0.40638409211E-01
                 42.251176346            0.18025593888
                 11.676557932            0.46315121755
                  3.5930506482           0.44087173314
            S   1   1.00
                  0.40245147363          1.0000000
            S   1   1.00
                  0.13090182668          1.0000000
            P   3   1.00
                  9.4680970621           0.38387871728E-01
                  2.0103545142           0.21117025112
                  0.54771004707          0.51328172114
            P   1   1.00
                  0.15268613795          1.0000000
            D   1   1.00
                  0.8000000              1.0000000
            ****
            -N     0
            S   5   1.00
               1712.8415853             -0.53934125305E-02
                257.64812677            -0.40221581118E-01
                 58.458245853           -0.17931144990
                 16.198367905           -0.46376317823
                  5.0052600809          -0.44171422662
            S   1   1.00
                  0.58731856571          1.0000000
            S   1   1.00
                  0.18764592253          1.0000000
            P   3   1.00
                 13.571470233           -0.40072398852E-01
                  2.9257372874          -0.21807045028
                  0.79927750754         -0.51294466049
            P   1   1.00
                  0.21954348034          1.0000000
            D   1   1.00
                  1.0000000              1.0000000
            ****
            -O     0
            S   5   1.00
               2266.1767785             -0.53431809926E-02
                340.87010191            -0.39890039230E-01
                 77.363135167           -0.17853911985
                 21.479644940           -0.46427684959
                  6.6589433124          -0.44309745172
            S   1   1.00
                  0.80975975668          1.0000000
            S   1   1.00
                  0.25530772234          1.0000000
            P   3   1.00
                 17.721504317            0.43394573193E-01
                  3.8635505440           0.23094120765
                  1.0480920883           0.51375311064
            P   1   1.00
                  0.27641544411          1.0000000
            D   1   1.00
                  1.2000000              1.0000000
            ****
            -F     0
            S   5   1.00
               2894.8325990             -0.53408255515E-02
                435.41939120            -0.39904258866E-01
                 98.843328866           -0.17912768038
                 27.485198001           -0.46758090825
                  8.5405498171          -0.44653131020
            S   1   1.00
                  1.0654578038           1.0000000
            S   1   1.00
                  0.33247346748          1.0000000
            P   3   1.00
                 22.696633924           -0.45212874436E-01
                  4.9872339257          -0.23754317067
                  1.3491613954          -0.51287353587
            P   1   1.00
                  0.34829881977          1.0000000
            D   1   1.00
                  1.4000000              1.0000000
            ****
            -S     0
            S   5   1.00
               9184.9303010             -0.22294387756E-02
               1381.5105503             -0.16683029937E-01
                313.87147580            -0.75262436116E-01
                 88.053870623           -0.19376827038
                 27.039914905           -0.17718020803
            S   3   1.00
                 45.648731303           -0.10736062573
                  4.9664522326           0.65066293018
                  2.0116242047           0.59712155354
            S   1   1.00
                  0.35661077013          1.0000000
            S   1   1.00
                  0.13507221477          1.0000000
            P   5   1.00
                261.98233439            -0.92729929822E-02
                 61.306894736           -0.66547669241E-01
                 19.103729887           -0.24828595903
                  6.6567720378          -0.48703847402
                  2.3959635161          -0.39337850312
            P   1   1.00
                  0.61776161679          1.0000000
            P   1   1.00
                  0.16993376871          1.0000000
            D   1   1.00
                  0.5500000              1.0000000
            D   1   1.00
                  2.9940000              1.0000000
            ****
            -Cl     0
            S   5   1.00
              10449.8275660              0.19708362484E-02
               1571.7365221              0.14754727977E-01
                357.12065523             0.66679112875E-01
                100.25185935             0.17228924084
                 30.812727554            0.15883786100
            S   3   1.00
                 51.923789434           -0.10009298909
                  5.7045760975           0.60841752753
                  2.3508376809           0.54352153355
            S   1   1.00
                  0.44605124672          1.0000000
            S   1   1.00
                  0.16848856190          1.0000000
            P   5   1.00
                307.66790569            -0.87801484118E-02
                 72.102015515           -0.63563355471E-01
                 22.532680262           -0.24016428276
                  7.8991765444          -0.47798866557
                  2.8767268321          -0.38515850005
            P   1   1.00
                  0.77459363955          1.0000000
            P   1   1.00
                  0.21037699698          1.0000000
            D   1   1.00
                  0.6500000              1.0000000
            D   1   1.00
                  3.6520000              1.0000000
            ****
            -Al     0
            S   5   1.00
               5887.5727030              0.13483347987E-02
                885.61225996             0.10071576809E-01
                201.13604899             0.45132454056E-01
                 56.284974674            0.11461268043
                 17.229551243            0.10159608943
            S   3   1.00
                 29.340249922            0.69347454208E-01
                  3.0439630420          -0.42528117679
                  1.1285539518          -0.41449832210
            S   1   1.00
                  0.14234175160          1.0000000
            S   1   1.00
                  0.54400192313E-01            1.0000000
            P   5   1.00
                145.11918809             0.63963373134E-02
                 33.717894833            0.44189359965E-01
                 10.369863083            0.15581575993
                  3.5135616036           0.28635286951
                  1.1980050273           0.22921423248
            P   1   1.00
                  0.26583005913          1.0000000
            P   1   1.00
                  0.71003361994E-01            1.0000000
            D   1   1.00
                  0.3000000              1.0000000
            D   1   1.00
                  1.1950000              1.0000000
            ****
            -Ti     0
            S   6   1.00
              42961.5121850              0.39127635355E-02
               6450.9759169              0.29969820489E-01
               1467.7210915              0.14836352707
                414.20997355             0.51347285324
                134.48715840             1.0335365483
                 46.122209796            0.77854233930
            S   3   1.00
                 89.447762543           -0.28385401259
                 10.223346060            1.6772785333
                  4.1353774271           1.2411928456
            S   3   1.00
                  6.7896181452          -0.78399994518E-02
                  1.1106730691           0.25495493019E-01
                  0.47565975578          0.16061172892E-01
            S   1   1.00
                  0.65986956934E-01            1.0000000
            S   1   1.00
                  0.25210342250E-01            1.0000000
            P   5   1.00
                522.03684782             0.19754179642E-01
                122.68649489             0.14460677619
                 38.572903611            0.54669004165
                 13.672169319            1.0531647540
                  5.0118529359           0.69111213363
            P   3   1.00
                  2.4131928282           0.75803437136
                  0.93252270050          1.3036241399
                  0.35429058390          0.53638653300
            P   1   1.00
                  0.1015610              1.0000000
            D   4   1.00
                 23.465125957            0.26536380115E-01
                  6.3332593832           0.13796453963
                  2.0766489946           0.35312644228
                  0.69027361954          0.48647124166
            D   1   1.00
                  0.21088738554          1.0000000
            ****
            -P     0
            S   5   1.00
               8002.4795106              0.57503489302E-02
               1203.6813590              0.43007628959E-01
                273.44227031             0.19363986252
                 76.655541517            0.49651693399
                 23.516927435            0.44983262479
            S   3   1.00
                 39.791683439            0.95188129789E-01
                  4.2770343323          -0.57649840368
                  1.6940256888          -0.54239583865
            S   1   1.00
                  0.27567674644          1.0000000
            S   1   1.00
                  0.10495590099          1.0000000
            P   5   1.00
                219.50755823             0.92100565257E-02
                 51.274155030            0.65409765745E-01
                 15.921595892            0.24033730279
                  5.5069913481           0.46318321788
                  1.9537719426           0.37392563382
            P   1   1.00
                  0.47803397932          1.0000000
            P   1   1.00
                  0.13657952621          1.0000000
            D   1   1.00
                  0.4500000              1.0000000
            D   1   1.00
                   2.5060000              1.0000000
            ****
 Initial command:
 /group/hpc-share/gaussian/2009D/g09/l1.exe "/scratch/gaussian/g_ammonium.com-835181.hn1.marqnet.mu.edu/Gau-27184.inp" -scrdir="/scratch/gaussian/g_ammonium.com-835181.hn1.marqnet.mu.edu/"
 Entering Link 1 = /group/hpc-share/gaussian/2009D/g09/l1.exe PID=     27188.
  
 Copyright (c) 1988,1990,1992,1993,1995,1998,2003,2009,2013,
            Gaussian, Inc.  All Rights Reserved.
  
 This is part of the Gaussian(R) 09 program.  It is based on
 the Gaussian(R) 03 system (copyright 2003, Gaussian, Inc.),
 the Gaussian(R) 98 system (copyright 1998, Gaussian, Inc.),
 the Gaussian(R) 94 system (copyright 1995, Gaussian, Inc.),
 the Gaussian 92(TM) system (copyright 1992, Gaussian, Inc.),
 the Gaussian 90(TM) system (copyright 1990, Gaussian, Inc.),
 the Gaussian 88(TM) system (copyright 1988, Gaussian, Inc.),
 the Gaussian 86(TM) system (copyright 1986, Carnegie Mellon
 University), and the Gaussian 82(TM) system (copyright 1983,
 Carnegie Mellon University). Gaussian is a federally registered
 trademark of Gaussian, Inc.
  
 This software contains proprietary and confidential information,
 including trade secrets, belonging to Gaussian, Inc.
  
 This software is provided under written license and may be
 used, copied, transmitted, or stored only in accord with that
 written license.
  
 The following legend is applicable only to US Government
 contracts under FAR:
  
                    RESTRICTED RIGHTS LEGEND
  
 Use, reproduction and disclosure by the US Government is
 subject to restrictions as set forth in subparagraphs (a)
 and (c) of the Commercial Computer Software - Restricted
 Rights clause in FAR 52.227-19.
  
 Gaussian, Inc.
 340 Quinnipiac St., Bldg. 40, Wallingford CT 06492
  
  
 ---------------------------------------------------------------
 Warning -- This program may not be used in any manner that
 competes with the business of Gaussian, Inc. or will provide
 assistance to any competitor of Gaussian, Inc.  The licensee
 of this program is prohibited from giving any competitor of
 Gaussian, Inc. access to this program.  By using this program,
 the user acknowledges that Gaussian, Inc. is engaged in the
 business of creating and licensing software in the field of
 computational chemistry and represents and warrants to the
 licensee that it is not a competitor of Gaussian, Inc. and that
 it will not use this program in any manner prohibited above.
 ---------------------------------------------------------------
  

 Cite this work as:
 Gaussian 09, Revision D.01,
 M. J. Frisch, G. W. Trucks, H. B. Schlegel, G. E. Scuseria, 
 M. A. Robb, J. R. Cheeseman, G. Scalmani, V. Barone, B. Mennucci, 
 G. A. Petersson, H. Nakatsuji, M. Caricato, X. Li, H. P. Hratchian, 
 A. F. Izmaylov, J. Bloino, G. Zheng, J. L. Sonnenberg, M. Hada, 
 M. Ehara, K. Toyota, R. Fukuda, J. Hasegawa, M. Ishida, T. Nakajima, 
 Y. Honda, O. Kitao, H. Nakai, T. Vreven, J. A. Montgomery, Jr., 
 J. E. Peralta, F. Ogliaro, M. Bearpark, J. J. Heyd, E. Brothers, 
 K. N. Kudin, V. N. Staroverov, T. Keith, R. Kobayashi, J. Normand, 
 K. Raghavachari, A. Rendell, J. C. Burant, S. S. Iyengar, J. Tomasi, 
 M. Cossi, N. Rega, J. M. Millam, M. Klene, J. E. Knox, J. B. Cross, 
 V. Bakken, C. Adamo, J. Jaramillo, R. Gomperts, R. E. Stratmann, 
 O. Yazyev, A. J. Austin, R. Cammi, C. Pomelli, J. W. Ochterski, 
 R. L. Martin, K. Morokuma, V. G. Zakrzewski, G. A. Voth, 
 P. Salvador, J. J. Dannenberg, S. Dapprich, A. D. Daniels, 
 O. Farkas, J. B. Foresman, J. V. Ortiz, J. Cioslowski, 
 and D. J. Fox, Gaussian, Inc., Wallingford CT, 2013.
 
 ******************************************
 Gaussian 09:  EM64L-G09RevD.01 24-Apr-2013
                14-Oct-2015 
 ******************************************
 %nproc=8
 Will use up to    8 processors via shared memory.
 %chk=ammonium.chk
 ------------------------------------------------------------
 #P PBE1PBE/gen scrf(pcm,solvent=diethylether) scf(tight) opt
 ------------------------------------------------------------
 1/14=-1,18=20,19=15,26=3,38=1/1,3;
 2/9=110,12=2,17=6,18=5,40=1/2;
 3/5=7,11=2,16=1,25=1,30=1,70=2201,71=1,72=8,74=-13/1,2,3;
 4//1;
 5/5=2,32=2,38=5,53=8/2;
 6/7=2,8=2,9=2,10=2,28=1/1;
 7//1,2,3,16;
 1/14=-1,18=20,19=15,26=3/3(2);
 2/9=110/2;
 99//99;
 2/9=110/2;
 3/5=7,6=1,11=2,16=1,25=1,30=1,70=2205,71=1,72=8,74=-13,82=7/1,2,3;
 4/5=5,16=3,69=1/1;
 5/5=2,32=2,38=5,53=8/2;
 7//1,2,3,16;
 1/14=-1,18=20,19=15,26=3/3(-5);
 2/9=110/2;
 6/7=2,8=2,9=2,10=2,19=2,28=1/1;
 99/9=1/99;
 Leave Link    1 at Wed Oct 14 11:16:14 2015, MaxMem=           0 cpu:         0.7
 (Enter /group/hpc-share/gaussian/2009D/g09/l101.exe)
 --------
 ammonium
 --------
 Symbolic Z-matrix:
 Charge =  1 Multiplicity = 1
 n
 h                    1    hn2
 h                    1    hn3      2    hnh3
 h                    1    hn4      2    hnh4     3    dih4     0
 h                    1    hn5      2    hnh5     3    dih5     0
       Variables:
  hn2                   1.089                    
  hn3                   1.089                    
  hnh3                109.471                    
  hn4                   1.089                    
  hnh4                109.471                    
  dih4                120.                       
  hn5                   1.089                    
  hnh5                109.471                    
  dih5               -120.                       
 
     3 tetrahedral angles replaced.
 NAtoms=      5 NQM=        5 NQMF=       0 NMMI=      0 NMMIF=      0
                NMic=       0 NMicF=      0.
                    Isotopes and Nuclear Properties:
 (Nuclear quadrupole moments (NQMom) in fm**2, nuclear magnetic moments (NMagM)
  in nuclear magnetons)

  Atom         1           2           3           4           5
 IAtWgt=          14           1           1           1           1
 AtmWgt=  14.0030740   1.0078250   1.0078250   1.0078250   1.0078250
 NucSpn=           2           1           1           1           1
 AtZEff=   0.0000000   0.0000000   0.0000000   0.0000000   0.0000000
 NQMom=    2.0440000   0.0000000   0.0000000   0.0000000   0.0000000
 NMagM=    0.4037610   2.7928460   2.7928460   2.7928460   2.7928460
 AtZNuc=   7.0000000   1.0000000   1.0000000   1.0000000   1.0000000
 Leave Link  101 at Wed Oct 14 11:16:14 2015, MaxMem=    33554432 cpu:         1.0
 (Enter /group/hpc-share/gaussian/2009D/g09/l103.exe)

 GradGradGradGradGradGradGradGradGradGradGradGradGradGradGradGradGradGrad
 Berny optimization.
 Initialization pass.
                           ----------------------------
                           !    Initial Parameters    !
                           ! (Angstroms and Degrees)  !
 --------------------------                            --------------------------
 ! Name  Definition              Value          Derivative Info.                !
 --------------------------------------------------------------------------------
 ! R1    R(1,2)                  1.089          estimate D2E/DX2                !
 ! R2    R(1,3)                  1.089          estimate D2E/DX2                !
 ! R3    R(1,4)                  1.089          estimate D2E/DX2                !
 ! R4    R(1,5)                  1.089          estimate D2E/DX2                !
 ! A1    A(2,1,3)              109.4712         estimate D2E/DX2                !
 ! A2    A(2,1,4)              109.4712         estimate D2E/DX2                !
 ! A3    A(2,1,5)              109.4712         estimate D2E/DX2                !
 ! A4    A(3,1,4)              109.4712         estimate D2E/DX2                !
 ! A5    A(3,1,5)              109.4712         estimate D2E/DX2                !
 ! A6    A(4,1,5)              109.4712         estimate D2E/DX2                !
 ! D1    D(2,1,4,3)           -120.0            estimate D2E/DX2                !
 ! D2    D(2,1,5,3)            120.0            estimate D2E/DX2                !
 ! D3    D(2,1,5,4)           -120.0            estimate D2E/DX2                !
 ! D4    D(3,1,5,4)            120.0            estimate D2E/DX2                !
 --------------------------------------------------------------------------------
 Trust Radius=3.00D-01 FncErr=1.00D-07 GrdErr=1.00D-06
 Number of steps in this run=     24 maximum allowed number of steps=    100.
 GradGradGradGradGradGradGradGradGradGradGradGradGradGradGradGradGradGrad

 Leave Link  103 at Wed Oct 14 11:16:14 2015, MaxMem=    33554432 cpu:         0.1
 (Enter /group/hpc-share/gaussian/2009D/g09/l202.exe)
                          Input orientation:                          
 ---------------------------------------------------------------------
 Center     Atomic      Atomic             Coordinates (Angstroms)
 Number     Number       Type             X           Y           Z
 ---------------------------------------------------------------------
      1          7           0        0.000000    0.000000    0.000000
      2          1           0        0.000000    0.000000    1.089000
      3          1           0        1.026719    0.000000   -0.363000
      4          1           0       -0.513360   -0.889165   -0.363000
      5          1           0       -0.513360    0.889165   -0.363000
 ---------------------------------------------------------------------
                    Distance matrix (angstroms):
                    1          2          3          4          5
     1  N    0.000000
     2  H    1.089000   0.000000
     3  H    1.089000   1.778330   0.000000
     4  H    1.089000   1.778330   1.778330   0.000000
     5  H    1.089000   1.778330   1.778330   1.778330   0.000000
 Stoichiometry    H4N(1+)
 Framework group  TD[O(N),4C3(H)]
 Deg. of freedom     1
 Full point group                 TD      NOp  24
 Largest Abelian subgroup         D2      NOp   4
 Largest concise Abelian subgroup D2      NOp   4
                         Standard orientation:                         
 ---------------------------------------------------------------------
 Center     Atomic      Atomic             Coordinates (Angstroms)
 Number     Number       Type             X           Y           Z
 ---------------------------------------------------------------------
      1          7           0        0.000000    0.000000    0.000000
      2          1           0        0.628734    0.628734    0.628734
      3          1           0       -0.628734   -0.628734    0.628734
      4          1           0       -0.628734    0.628734   -0.628734
      5          1           0        0.628734   -0.628734   -0.628734
 ---------------------------------------------------------------------
 Rotational constants (GHZ):    158.5650837    158.5650837    158.5650837
 Leave Link  202 at Wed Oct 14 11:16:14 2015, MaxMem=    33554432 cpu:         0.0
 (Enter /group/hpc-share/gaussian/2009D/g09/l301.exe)
 General basis read from cards:  (5D, 7F)
 Centers:       2      3      4      5
 S 3 1.00
     Exponent=  1.3010701000D+01 Coefficients=  1.9682158000D-02
     Exponent=  1.9622572000D+00 Coefficients=  1.3796524000D-01
     Exponent=  4.4453796000D-01 Coefficients=  4.7831935000D-01
 S 1 1.00
     Exponent=  1.2194962000D-01 Coefficients=  1.0000000000D+00
 ****
 Centers:       1
 S 5 1.00
     Exponent=  1.7128415853D+03 Coefficients= -5.3934125305D-03
     Exponent=  2.5764812677D+02 Coefficients= -4.0221581118D-02
     Exponent=  5.8458245853D+01 Coefficients= -1.7931144990D-01
     Exponent=  1.6198367905D+01 Coefficients= -4.6376317823D-01
     Exponent=  5.0052600809D+00 Coefficients= -4.4171422662D-01
 S 1 1.00
     Exponent=  5.8731856571D-01 Coefficients=  1.0000000000D+00
 S 1 1.00
     Exponent=  1.8764592253D-01 Coefficients=  1.0000000000D+00
 P 3 1.00
     Exponent=  1.3571470233D+01 Coefficients= -4.0072398852D-02
     Exponent=  2.9257372874D+00 Coefficients= -2.1807045028D-01
     Exponent=  7.9927750754D-01 Coefficients= -5.1294466049D-01
 P 1 1.00
     Exponent=  2.1954348034D-01 Coefficients=  1.0000000000D+00
 D 1 1.00
     Exponent=  1.0000000000D+00 Coefficients=  1.0000000000D+00
 ****
 Ernie: Thresh=  0.10000D-02 Tol=  0.10000D-05 Strict=F.
 There are     8 symmetry adapted cartesian basis functions of A   symmetry.
 There are     5 symmetry adapted cartesian basis functions of B1  symmetry.
 There are     5 symmetry adapted cartesian basis functions of B2  symmetry.
 There are     5 symmetry adapted cartesian basis functions of B3  symmetry.
 There are     7 symmetry adapted basis functions of A   symmetry.
 There are     5 symmetry adapted basis functions of B1  symmetry.
 There are     5 symmetry adapted basis functions of B2  symmetry.
 There are     5 symmetry adapted basis functions of B3  symmetry.
    22 basis functions,    41 primitive gaussians,    23 cartesian basis functions
     5 alpha electrons        5 beta electrons
       nuclear repulsion energy        15.3914444971 Hartrees.
 IExCor= 1009 DFT=T Ex+Corr=PBE1PBE ExCW=0 ScaHFX=  0.250000
 ScaDFX=  0.750000  0.750000  1.000000  1.000000 ScalE2=  1.000000  1.000000
 IRadAn=      0 IRanWt=     -1 IRanGd=            0 ICorTp=0 IEmpDi=  4
 NAtoms=    5 NActive=    5 NUniq=    2 SFac= 4.00D+00 NAtFMM=   60 NAOKFM=F Big=F
 Integral buffers will be    131072 words long.
 Raffenetti 2 integral format.
 Two-electron integral symmetry is turned on.
 ------------------------------------------------------------------------------
 Polarizable Continuum Model (PCM)
 =================================
 Model                : PCM (using non-symmetric T matrix).
 Atomic radii         : UFF (Universal Force Field).
 Polarization charges : Total charges.
 Charge compensation  : None.
 Solution method      : On-the-fly selection.
 Cavity type          : Scaled VdW (van der Waals Surface) (Alpha=1.100).
 Cavity algorithm     : GePol (No added spheres)
                        Default sphere list used, NSphG=    5.
                        Lebedev-Laikov grids with approx.  5.0 points / Ang**2.
                        Smoothing algorithm: Karplus/York (Gamma=1.0000).
                        Polarization charges: spherical gaussians, with
                                              point-specific exponents (IZeta= 3).
                        Self-potential: point-specific (ISelfS= 7).
                        Self-field    : sphere-specific E.n sum rule (ISelfD= 2).
 1st derivatives      : Analytical E(r).r(x)/FMM algorithm (CHGder, D1EAlg=3).
                        Cavity 1st derivative terms included.
 Solvent              : DiethylEther, Eps=   4.240000 Eps(inf)=   1.829527
 ------------------------------------------------------------------------------
 Spheres list:
 ISph  on   Nord     Re0    Alpha      Xe            Ye            Ze
    1   N      1    1.8300  1.100      0.000000      0.000000      0.000000
    2   H      2    1.4430  1.100      0.628734      0.628734      0.628734
    3   H      3    1.4430  1.100     -0.628734     -0.628734      0.628734
    4   H      4    1.4430  1.100     -0.628734      0.628734     -0.628734
    5   H      5    1.4430  1.100      0.628734     -0.628734     -0.628734
 ------------------------------------------------------------------------------
 GePol: Number of generator spheres                  =       5
 GePol: Total number of spheres                      =       5
 GePol: Number of exposed spheres                    =       5 (100.00%)
 GePol: Number of points                             =     518
 GePol: Average weight of points                     =       0.13
 GePol: Minimum weight of points                     =   0.20D-04
 GePol: Maximum weight of points                     =    0.20212
 GePol: Number of points with low weight             =      36
 GePol: Fraction of low-weight points (<1% of avg)   =       6.95%
 GePol: Cavity surface area                          =     69.206 Ang**2
 GePol: Cavity volume                                =     49.684 Ang**3
 Leave Link  301 at Wed Oct 14 11:16:14 2015, MaxMem=    33554432 cpu:         1.6
 (Enter /group/hpc-share/gaussian/2009D/g09/l302.exe)
 NPDir=0 NMtPBC=     1 NCelOv=     1 NCel=       1 NClECP=     1 NCelD=      1
         NCelK=      1 NCelE2=     1 NClLst=     1 CellRange=     0.0.
 One-electron integrals computed using PRISM.
 One-electron integral symmetry used in STVInt
 NBasis=    22 RedAO= T EigKep=  5.56D-02  NBF=     7     5     5     5
 NBsUse=    22 1.00D-06 EigRej= -1.00D+00 NBFU=     7     5     5     5
 Precomputing XC quadrature grid using
 IXCGrd= 4 IRadAn=           0 IRanWt=          -1 IRanGd=           0 AccXCQ= 0.00D+00.
 Generated NRdTot=       0 NPtTot=           0 NUsed=           0 NTot=          32
 NSgBfM=    23    23    23    23    23 MxSgAt=     5 MxSgA2=     5.
 Leave Link  302 at Wed Oct 14 11:16:15 2015, MaxMem=    33554432 cpu:         1.4
 (Enter /group/hpc-share/gaussian/2009D/g09/l303.exe)
 DipDrv:  MaxL=1.
 Leave Link  303 at Wed Oct 14 11:16:15 2015, MaxMem=    33554432 cpu:         0.4
 (Enter /group/hpc-share/gaussian/2009D/g09/l401.exe)
 ExpMin= 1.22D-01 ExpMax= 1.71D+03 ExpMxC= 2.58D+02 IAcc=1 IRadAn=         1 AccDes= 0.00D+00
 Harris functional with IExCor= 1009 and IRadAn=       1 diagonalized for initial guess.
 HarFok:  IExCor= 1009 AccDes= 0.00D+00 IRadAn=         1 IDoV= 1 UseB2=F ITyADJ=14
 ICtDFT=  3500011 ScaDFX=  1.000000  1.000000  1.000000  1.000000
 FoFCou: FMM=F IPFlag=           0 FMFlag=      100000 FMFlg1=           0
         NFxFlg=           0 DoJE=T BraDBF=F KetDBF=T FulRan=T
         wScrn=  0.000000 ICntrl=     500 IOpCl=  0 I1Cent=   200000004 NGrid=           0
         NMat0=    1 NMatS0=      1 NMatT0=    0 NMatD0=    1 NMtDS0=    0 NMtDT0=    0
 Petite list used in FoFCou.
 Harris En= -56.8490409994969    
 JPrj=0 DoOrth=F DoCkMO=F.
 Initial guess orbital symmetries:
       Occupied  (A1) (A1) (T2) (T2) (T2)
       Virtual   (A1) (T2) (T2) (T2) (T2) (T2) (T2) (A1) (T2) (T2)
                 (T2) (A1) (E) (E) (T2) (T2) (T2)
 The electronic state of the initial guess is 1-A1.
 Leave Link  401 at Wed Oct 14 11:16:15 2015, MaxMem=    33554432 cpu:         2.4
 (Enter /group/hpc-share/gaussian/2009D/g09/l502.exe)
 Closed shell SCF:
 Using DIIS extrapolation, IDIIS=  1040.
 Integral symmetry usage will be decided dynamically.
 Keep R1 ints in memory in symmetry-blocked form, NReq=3229823.
 IVT=       20905 IEndB=       20905 NGot=    33554432 MDV=    33524253
 LenX=    33524253 LenY=    33523283
 Requested convergence on RMS density matrix=1.00D-08 within 128 cycles.
 Requested convergence on MAX density matrix=1.00D-06.
 Requested convergence on             energy=1.00D-06.
 No special actions if energy rises.
 FoFCou: FMM=F IPFlag=           0 FMFlag=           0 FMFlg1=           0
         NFxFlg=           0 DoJE=F BraDBF=F KetDBF=F FulRan=T
         wScrn=  0.000000 ICntrl=     600 IOpCl=  0 I1Cent=           0 NGrid=           0
         NMat0=    1 NMatS0=    253 NMatT0=    0 NMatD0=    1 NMtDS0=    0 NMtDT0=    0
 Petite list used in FoFCou.

 Cycle   1  Pass 1  IDiag  1:
 Inv3:  Mode=1 IEnd=      804972.
 Iteration    1 A*A^-1 deviation from unit magnitude is 4.55D-15 for    374.
 Iteration    1 A*A^-1 deviation from orthogonality  is 2.89D-15 for    420    205.
 Iteration    1 A^-1*A deviation from unit magnitude is 4.44D-15 for    374.
 Iteration    1 A^-1*A deviation from orthogonality  is 2.65D-15 for    417    415.
 E= -56.8393549892186    
 DIIS: error= 1.99D-02 at cycle   1 NSaved=   1.
 NSaved= 1 IEnMin= 1 EnMin= -56.8393549892186     IErMin= 1 ErrMin= 1.99D-02
 ErrMax= 1.99D-02  0.00D+00 EMaxC= 1.00D-01 BMatC= 8.26D-03 BMatP= 8.26D-03
 IDIUse=3 WtCom= 8.01D-01 WtEn= 1.99D-01
 Coeff-Com:  0.100D+01
 Coeff-En:   0.100D+01
 Coeff:      0.100D+01
 Gap=     0.568 Goal=   None    Shift=    0.000
 GapD=    0.568 DampG=2.000 DampE=0.500 DampFc=1.0000 IDamp=-1.
 RMSDP=5.21D-03 MaxDP=4.50D-02              OVMax= 4.43D-02

 Cycle   2  Pass 1  IDiag  1:
 E= -56.8372689318940     Delta-E=        0.002086057325 Rises=F Damp=F
 DIIS: error= 2.46D-02 at cycle   2 NSaved=   2.
 NSaved= 2 IEnMin= 1 EnMin= -56.8393549892186     IErMin= 1 ErrMin= 1.99D-02
 ErrMax= 2.46D-02  0.00D+00 EMaxC= 1.00D-01 BMatC= 1.03D-02 BMatP= 8.26D-03
 IDIUse=2 WtCom= 0.00D+00 WtEn= 1.00D+00
 Coeff-En:   0.567D+00 0.433D+00
 Coeff:      0.567D+00 0.433D+00
 Gap=     0.589 Goal=   None    Shift=    0.000
 RMSDP=2.80D-03 MaxDP=2.49D-02 DE= 2.09D-03 OVMax= 2.53D-02

 Cycle   3  Pass 1  IDiag  1:
 E= -56.8461385294470     Delta-E=       -0.008869597553 Rises=F Damp=F
 DIIS: error= 1.80D-04 at cycle   3 NSaved=   3.
 NSaved= 3 IEnMin= 3 EnMin= -56.8461385294470     IErMin= 3 ErrMin= 1.80D-04
 ErrMax= 1.80D-04  0.00D+00 EMaxC= 1.00D-01 BMatC= 5.60D-07 BMatP= 8.26D-03
 IDIUse=3 WtCom= 9.98D-01 WtEn= 1.80D-03
 Coeff-Com: -0.164D-01-0.133D-01 0.103D+01
 Coeff-En:   0.000D+00 0.000D+00 0.100D+01
 Coeff:     -0.164D-01-0.133D-01 0.103D+01
 Gap=     0.589 Goal=   None    Shift=    0.000
 RMSDP=8.06D-05 MaxDP=3.01D-04 DE=-8.87D-03 OVMax= 3.46D-04

 Cycle   4  Pass 1  IDiag  1:
 E= -56.8461393861183     Delta-E=       -0.000000856671 Rises=F Damp=F
 DIIS: error= 2.30D-05 at cycle   4 NSaved=   4.
 NSaved= 4 IEnMin= 4 EnMin= -56.8461393861183     IErMin= 4 ErrMin= 2.30D-05
 ErrMax= 2.30D-05  0.00D+00 EMaxC= 1.00D-01 BMatC= 8.23D-09 BMatP= 5.60D-07
 IDIUse=1 WtCom= 1.00D+00 WtEn= 0.00D+00
 Coeff-Com:  0.593D-03 0.140D-02-0.573D-01 0.106D+01
 Coeff:      0.593D-03 0.140D-02-0.573D-01 0.106D+01
 Gap=     0.589 Goal=   None    Shift=    0.000
 RMSDP=2.98D-06 MaxDP=2.39D-05 DE=-8.57D-07 OVMax= 2.18D-05

 Cycle   5  Pass 1  IDiag  1:
 E= -56.8461393928815     Delta-E=       -0.000000006763 Rises=F Damp=F
 DIIS: error= 1.05D-07 at cycle   5 NSaved=   5.
 NSaved= 5 IEnMin= 5 EnMin= -56.8461393928815     IErMin= 5 ErrMin= 1.05D-07
 ErrMax= 1.05D-07  0.00D+00 EMaxC= 1.00D-01 BMatC= 1.98D-13 BMatP= 8.23D-09
 IDIUse=1 WtCom= 1.00D+00 WtEn= 0.00D+00
 Coeff-Com: -0.114D-04-0.363D-04 0.154D-02-0.297D-01 0.103D+01
 Coeff:     -0.114D-04-0.363D-04 0.154D-02-0.297D-01 0.103D+01
 Gap=     0.589 Goal=   None    Shift=    0.000
 RMSDP=2.76D-08 MaxDP=2.72D-07 DE=-6.76D-09 OVMax= 1.32D-07

 Cycle   6  Pass 1  IDiag  1:
 E= -56.8461393928818     Delta-E=        0.000000000000 Rises=F Damp=F
 DIIS: error= 4.78D-09 at cycle   6 NSaved=   6.
 NSaved= 6 IEnMin= 6 EnMin= -56.8461393928818     IErMin= 6 ErrMin= 4.78D-09
 ErrMax= 4.78D-09  0.00D+00 EMaxC= 1.00D-01 BMatC= 1.91D-16 BMatP= 1.98D-13
 IDIUse=1 WtCom= 1.00D+00 WtEn= 0.00D+00
 Coeff-Com:  0.734D-06 0.158D-05-0.798D-04 0.111D-02-0.475D-01 0.105D+01
 Coeff:      0.734D-06 0.158D-05-0.798D-04 0.111D-02-0.475D-01 0.105D+01
 Gap=     0.589 Goal=   None    Shift=    0.000
 RMSDP=9.49D-10 MaxDP=1.28D-08 DE=-3.69D-13 OVMax= 8.33D-09

 Error on total polarization charges = -0.00142
 SCF Done:  E(RPBE1PBE) =  -56.8461393929     A.U. after    6 cycles
            NFock=  6  Conv=0.95D-09     -V/T= 2.0153
 KE= 5.598831718632D+01 PE=-1.591113587871D+02 EE= 3.088545771078D+01
 Leave Link  502 at Wed Oct 14 11:16:16 2015, MaxMem=    33554432 cpu:         7.6
 (Enter /group/hpc-share/gaussian/2009D/g09/l601.exe)
 Copying SCF densities to generalized density rwf, IOpCl= 0 IROHF=0.

 **********************************************************************

            Population analysis using the SCF density.

 **********************************************************************

 Orbital symmetries:
       Occupied  (A1) (A1) (T2) (T2) (T2)
       Virtual   (A1) (T2) (T2) (T2) (T2) (T2) (T2) (A1) (T2) (T2)
                 (T2) (A1) (E) (E) (T2) (T2) (T2)
 The electronic state is 1-A1.
 Alpha  occ. eigenvalues --  -14.58883  -1.04956  -0.63560  -0.63560  -0.63560
 Alpha virt. eigenvalues --   -0.04679   0.03253   0.03253   0.03253   0.39215
 Alpha virt. eigenvalues --    0.39215   0.39215   0.52532   0.72784   0.72784
 Alpha virt. eigenvalues --    0.72784   0.92481   1.88977   1.88977   2.34337
 Alpha virt. eigenvalues --    2.34337   2.34337
          Condensed to atoms (all electrons):
               1          2          3          4          5
     1  N    6.300365   0.318401   0.318401   0.318401   0.318401
     2  H    0.318401   0.310715  -0.007536  -0.007536  -0.007536
     3  H    0.318401  -0.007536   0.310715  -0.007536  -0.007536
     4  H    0.318401  -0.007536  -0.007536   0.310715  -0.007536
     5  H    0.318401  -0.007536  -0.007536  -0.007536   0.310715
 Mulliken charges:
               1
     1  N   -0.573967
     2  H    0.393492
     3  H    0.393492
     4  H    0.393492
     5  H    0.393492
 Sum of Mulliken charges =   1.00000
 Mulliken charges with hydrogens summed into heavy atoms:
               1
     1  N    1.000000
 Electronic spatial extent (au):  <R**2>=             26.4795
 Charge=              1.0000 electrons
 Dipole moment (field-independent basis, Debye):
    X=              0.0000    Y=              0.0000    Z=              0.0000  Tot=              0.0000
 Quadrupole moment (field-independent basis, Debye-Ang):
   XX=             -4.2770   YY=             -4.2770   ZZ=             -4.2770
   XY=              0.0000   XZ=              0.0000   YZ=              0.0000
 Traceless Quadrupole moment (field-independent basis, Debye-Ang):
   XX=              0.0000   YY=              0.0000   ZZ=              0.0000
   XY=              0.0000   XZ=              0.0000   YZ=              0.0000
 Octapole moment (field-independent basis, Debye-Ang**2):
  XXX=              0.0000  YYY=              0.0000  ZZZ=              0.0000  XYY=              0.0000
  XXY=              0.0000  XXZ=              0.0000  XZZ=              0.0000  YZZ=              0.0000
  YYZ=              0.0000  XYZ=              2.0619
 Hexadecapole moment (field-independent basis, Debye-Ang**3):
 XXXX=             -7.7827 YYYY=             -7.7827 ZZZZ=             -7.7827 XXXY=              0.0000
 XXXZ=              0.0000 YYYX=              0.0000 YYYZ=              0.0000 ZZZX=              0.0000
 ZZZY=              0.0000 XXYY=             -1.5986 XXZZ=             -1.5986 YYZZ=             -1.5986
 XXYZ=              0.0000 YYXZ=              0.0000 ZZXY=              0.0000
 N-N= 1.539144449711D+01 E-N=-1.591113588180D+02  KE= 5.598831718632D+01
 Symmetry A    KE= 4.773353201709D+01
 Symmetry B1   KE= 2.751595056408D+00
 Symmetry B2   KE= 2.751595056408D+00
 Symmetry B3   KE= 2.751595056408D+00
 No NMR shielding tensors so no spin-rotation constants.
 Leave Link  601 at Wed Oct 14 11:16:17 2015, MaxMem=    33554432 cpu:         1.6
 (Enter /group/hpc-share/gaussian/2009D/g09/l701.exe)
 Compute integral first derivatives.
 ... and contract with generalized density number  0.
 D1PCM: PCM CHGder 1st derivatives, ID1Alg=3 FixD1E=F DoIter=F DoCFld=F I1PDM=0.
 GePol: Maximum number of non-zero 1st derivatives   =     262
 Leave Link  701 at Wed Oct 14 11:16:17 2015, MaxMem=    33554432 cpu:         2.7
 (Enter /group/hpc-share/gaussian/2009D/g09/l702.exe)
 L702 exits ... SP integral derivatives will be done elsewhere.
 Leave Link  702 at Wed Oct 14 11:16:17 2015, MaxMem=    33554432 cpu:         0.1
 (Enter /group/hpc-share/gaussian/2009D/g09/l703.exe)
 Compute integral first derivatives, UseDBF=F ICtDFT=           0.
 Integral derivatives from FoFJK, PRISM(SPDF).
 Calling FoFJK, ICntrl=      2127 FMM=F ISym2X=1 I1Cent= 0 IOpClX= 0 NMat=1 NMatS=1 NMatT=0.
 FoFJK:  IHMeth= 1 ICntrl=    2127 DoSepK=F KAlg= 0 I1Cent=   0 FoldK=F
 IRaf=         0 NMat=   1 IRICut=       1 DoRegI=T DoRafI=F ISym2E= 1.
 FoFCou: FMM=F IPFlag=           0 FMFlag=      100000 FMFlg1=         800
         NFxFlg=           0 DoJE=F BraDBF=F KetDBF=F FulRan=T
         wScrn=  0.000000 ICntrl=    2127 IOpCl=  0 I1Cent=           0 NGrid=           0
         NMat0=    1 NMatS0=      1 NMatT0=    0 NMatD0=    1 NMtDS0=    0 NMtDT0=    0
 Petite list used in FoFCou.
 Leave Link  703 at Wed Oct 14 11:16:18 2015, MaxMem=    33554432 cpu:         1.9
 (Enter /group/hpc-share/gaussian/2009D/g09/l716.exe)
 Dipole        =-8.88178420D-16-8.88178420D-16-4.44089210D-16
 ***** Axes restored to original set *****
 -------------------------------------------------------------------
 Center     Atomic                   Forces (Hartrees/Bohr)
 Number     Number              X              Y              Z
 -------------------------------------------------------------------
      1        7           0.000000000    0.000000000    0.000000000
      2        1           0.000000000    0.000000000   -0.039438569
      3        1          -0.037183039    0.000000000    0.013146190
      4        1           0.018591520    0.032201457    0.013146190
      5        1           0.018591520   -0.032201457    0.013146190
 -------------------------------------------------------------------
 Cartesian Forces:  Max     0.039438569 RMS     0.020365989
 Leave Link  716 at Wed Oct 14 11:16:18 2015, MaxMem=    33554432 cpu:         0.2
 (Enter /group/hpc-share/gaussian/2009D/g09/l103.exe)

 GradGradGradGradGradGradGradGradGradGradGradGradGradGradGradGradGradGrad
 Berny optimization.
 FormGI is forming the generalized inverse of G from B-inverse, IUseBI=4.
 Internal  Forces:  Max     0.039438569 RMS     0.021080802
 Search for a local minimum.
 Step number   1 out of a maximum of   24
 All quantities printed in internal units (Hartrees-Bohrs-Radians)
 RMS Force = .21081D-01 SwitMx=.10000D-02 MixMth= 1
 Mixed Optimization -- RFO/linear search
 Second derivative matrix not updated -- first step.
 The second derivative matrix:
                          R1        R2        R3        R4        A1
           R1           0.34928
           R2           0.00000   0.34928
           R3           0.00000   0.00000   0.34928
           R4           0.00000   0.00000   0.00000   0.34928
           A1           0.00000   0.00000   0.00000   0.00000   0.16000
           A2           0.00000   0.00000   0.00000   0.00000   0.00000
           A3           0.00000   0.00000   0.00000   0.00000   0.00000
           A4           0.00000   0.00000   0.00000   0.00000   0.00000
           A5           0.00000   0.00000   0.00000   0.00000   0.00000
           A6           0.00000   0.00000   0.00000   0.00000   0.00000
           D1           0.00000   0.00000   0.00000   0.00000   0.00000
           D2           0.00000   0.00000   0.00000   0.00000   0.00000
           D3           0.00000   0.00000   0.00000   0.00000   0.00000
           D4           0.00000   0.00000   0.00000   0.00000   0.00000
                          A2        A3        A4        A5        A6
           A2           0.16000
           A3           0.00000   0.16000
           A4           0.00000   0.00000   0.16000
           A5           0.00000   0.00000   0.00000   0.16000
           A6           0.00000   0.00000   0.00000   0.00000   0.16000
           D1           0.00000   0.00000   0.00000   0.00000   0.00000
           D2           0.00000   0.00000   0.00000   0.00000   0.00000
           D3           0.00000   0.00000   0.00000   0.00000   0.00000
           D4           0.00000   0.00000   0.00000   0.00000   0.00000
                          D1        D2        D3        D4
           D1           0.00230
           D2           0.00000   0.00230
           D3           0.00000   0.00000   0.00230
           D4           0.00000   0.00000   0.00000   0.00230
 ITU=  0
     Eigenvalues ---    0.05082   0.05715   0.08641   0.16000   0.16000
     Eigenvalues ---    0.34928   0.34928   0.34928   0.34928
 RFO step:  Lambda=-1.69863453D-02 EMin= 5.08230769D-02
 Linear search not attempted -- first point.
 Iteration  1 RMS(Cart)=  0.05755522 RMS(Int)=  0.00000001
 Iteration  2 RMS(Cart)=  0.00000000 RMS(Int)=  0.00000000
 ITry= 1 IFail=0 DXMaxC= 1.08D-01 DCOld= 1.00D+10 DXMaxT= 3.00D-01 DXLimC= 3.00D+00 Rises=F
 ClnCor:  largest displacement from symmetrization is 1.78D-14 for atom     5.
 Variable       Old X    -DE/DX   Delta X   Delta X   Delta X     New X
                                 (Linear)    (Quad)   (Total)
    R1        2.05791  -0.03944   0.00000  -0.10768  -0.10768   1.95024
    R2        2.05791  -0.03944   0.00000  -0.10768  -0.10768   1.95024
    R3        2.05791  -0.03944   0.00000  -0.10768  -0.10768   1.95024
    R4        2.05791  -0.03944   0.00000  -0.10768  -0.10768   1.95024
    A1        1.91063   0.00000   0.00000   0.00000   0.00000   1.91063
    A2        1.91063   0.00000   0.00000   0.00000   0.00000   1.91063
    A3        1.91063   0.00000   0.00000   0.00000   0.00000   1.91063
    A4        1.91063   0.00000   0.00000   0.00000   0.00000   1.91063
    A5        1.91063   0.00000   0.00000   0.00000   0.00000   1.91063
    A6        1.91063   0.00000   0.00000   0.00000   0.00000   1.91063
    D1       -2.09440   0.00000   0.00000   0.00000   0.00000  -2.09440
    D2        2.09440   0.00000   0.00000   0.00000   0.00000   2.09440
    D3       -2.09440   0.00000   0.00000   0.00000   0.00000  -2.09440
    D4        2.09440   0.00000   0.00000   0.00000   0.00000   2.09440
         Item               Value     Threshold  Converged?
 Maximum Force            0.039439     0.000450     NO 
 RMS     Force            0.021081     0.000300     NO 
 Maximum Displacement     0.107676     0.001800     NO 
 RMS     Displacement     0.057555     0.001200     NO 
 Predicted change in Energy=-8.887054D-03
 Lowest energy point so far.  Saving SCF results.
 GradGradGradGradGradGradGradGradGradGradGradGradGradGradGradGradGradGrad

 Leave Link  103 at Wed Oct 14 11:16:18 2015, MaxMem=    33554432 cpu:         0.3
 (Enter /group/hpc-share/gaussian/2009D/g09/l202.exe)
                          Input orientation:                          
 ---------------------------------------------------------------------
 Center     Atomic      Atomic             Coordinates (Angstroms)
 Number     Number       Type             X           Y           Z
 ---------------------------------------------------------------------
      1          7           0        0.000000    0.000000    0.000000
      2          1           0        0.000000    0.000000    1.032020
      3          1           0        0.972998    0.000000   -0.344007
      4          1           0       -0.486499   -0.842641   -0.344007
      5          1           0       -0.486499    0.842641   -0.344007
 ---------------------------------------------------------------------
                    Distance matrix (angstroms):
                    1          2          3          4          5
     1  N    0.000000
     2  H    1.032020   0.000000
     3  H    1.032020   1.685282   0.000000
     4  H    1.032020   1.685282   1.685282   0.000000
     5  H    1.032020   1.685282   1.685282   1.685282   0.000000
 Stoichiometry    H4N(1+)
 Framework group  TD[O(N),4C3(H)]
 Deg. of freedom     1
 Full point group                 TD      NOp  24
 RotChk:  IX=0 Diff= 3.57D-16
 Largest Abelian subgroup         D2      NOp   4
 Largest concise Abelian subgroup D2      NOp   4
                         Standard orientation:                         
 ---------------------------------------------------------------------
 Center     Atomic      Atomic             Coordinates (Angstroms)
 Number     Number       Type             X           Y           Z
 ---------------------------------------------------------------------
      1          7           0        0.000000    0.000000    0.000000
      2          1           0        0.595837    0.595837    0.595837
      3          1           0       -0.595837   -0.595837    0.595837
      4          1           0       -0.595837    0.595837   -0.595837
      5          1           0        0.595837   -0.595837   -0.595837
 ---------------------------------------------------------------------
 Rotational constants (GHZ):    176.5577580    176.5577580    176.5577580
 Leave Link  202 at Wed Oct 14 11:16:18 2015, MaxMem=    33554432 cpu:         0.0
 (Enter /group/hpc-share/gaussian/2009D/g09/l301.exe)
 Basis read from rwf:  (5D, 7F)
 No pseudopotential information found on rwf file.
 There are     8 symmetry adapted cartesian basis functions of A   symmetry.
 There are     5 symmetry adapted cartesian basis functions of B1  symmetry.
 There are     5 symmetry adapted cartesian basis functions of B2  symmetry.
 There are     5 symmetry adapted cartesian basis functions of B3  symmetry.
 There are     7 symmetry adapted basis functions of A   symmetry.
 There are     5 symmetry adapted basis functions of B1  symmetry.
 There are     5 symmetry adapted basis functions of B2  symmetry.
 There are     5 symmetry adapted basis functions of B3  symmetry.
    22 basis functions,    41 primitive gaussians,    23 cartesian basis functions
     5 alpha electrons        5 beta electrons
       nuclear repulsion energy        16.2412332192 Hartrees.
 IExCor= 1009 DFT=T Ex+Corr=PBE1PBE ExCW=0 ScaHFX=  0.250000
 ScaDFX=  0.750000  0.750000  1.000000  1.000000 ScalE2=  1.000000  1.000000
 IRadAn=      0 IRanWt=     -1 IRanGd=            0 ICorTp=0 IEmpDi=  4
 NAtoms=    5 NActive=    5 NUniq=    2 SFac= 4.00D+00 NAtFMM=   60 NAOKFM=F Big=F
 Integral buffers will be    131072 words long.
 Raffenetti 2 integral format.
 Two-electron integral symmetry is turned on.
 No density basis found on file   724.
 ------------------------------------------------------------------------------
 Polarizable Continuum Model (PCM)
 =================================
 Model                : PCM (using non-symmetric T matrix).
 Atomic radii         : UFF (Universal Force Field).
 Polarization charges : Total charges.
 Charge compensation  : None.
 Solution method      : On-the-fly selection.
 Cavity type          : Scaled VdW (van der Waals Surface) (Alpha=1.100).
 Cavity algorithm     : GePol (No added spheres)
                        Default sphere list used, NSphG=    5.
                        Lebedev-Laikov grids with approx.  5.0 points / Ang**2.
                        Smoothing algorithm: Karplus/York (Gamma=1.0000).
                        Polarization charges: spherical gaussians, with
                                              point-specific exponents (IZeta= 3).
                        Self-potential: point-specific (ISelfS= 7).
                        Self-field    : sphere-specific E.n sum rule (ISelfD= 2).
 1st derivatives      : Analytical E(r).r(x)/FMM algorithm (CHGder, D1EAlg=3).
                        Cavity 1st derivative terms included.
 Solvent              : DiethylEther, Eps=   4.240000 Eps(inf)=   1.829527
 ------------------------------------------------------------------------------
 Spheres list:
 ISph  on   Nord     Re0    Alpha      Xe            Ye            Ze
    1   N      1    1.8300  1.100      0.000000      0.000000      0.000000
    2   H      2    1.4430  1.100      0.595837      0.595837      0.595837
    3   H      3    1.4430  1.100     -0.595837     -0.595837      0.595837
    4   H      4    1.4430  1.100     -0.595837      0.595837     -0.595837
    5   H      5    1.4430  1.100      0.595837     -0.595837     -0.595837
 ------------------------------------------------------------------------------
 GePol: Number of generator spheres                  =       5
 GePol: Total number of spheres                      =       5
 GePol: Number of exposed spheres                    =       5 (100.00%)
 GePol: Number of points                             =     506
 GePol: Average weight of points                     =       0.13
 GePol: Minimum weight of points                     =   0.71D-03
 GePol: Maximum weight of points                     =    0.20212
 GePol: Number of points with low weight             =      24
 GePol: Fraction of low-weight points (<1% of avg)   =       4.74%
 GePol: Cavity surface area                          =     66.996 Ang**2
 GePol: Cavity volume                                =     47.871 Ang**3
 Leave Link  301 at Wed Oct 14 11:16:18 2015, MaxMem=    33554432 cpu:         0.7
 (Enter /group/hpc-share/gaussian/2009D/g09/l302.exe)
 NPDir=0 NMtPBC=     1 NCelOv=     1 NCel=       1 NClECP=     1 NCelD=      1
         NCelK=      1 NCelE2=     1 NClLst=     1 CellRange=     0.0.
 One-electron integrals computed using PRISM.
 One-electron integral symmetry used in STVInt
 NBasis=    22 RedAO= T EigKep=  4.88D-02  NBF=     7     5     5     5
 NBsUse=    22 1.00D-06 EigRej= -1.00D+00 NBFU=     7     5     5     5
 Precomputing XC quadrature grid using
 IXCGrd= 4 IRadAn=           0 IRanWt=          -1 IRanGd=           0 AccXCQ= 0.00D+00.
 Generated NRdTot=       0 NPtTot=           0 NUsed=           0 NTot=          32
 NSgBfM=    23    23    23    23    23 MxSgAt=     5 MxSgA2=     5.
 Leave Link  302 at Wed Oct 14 11:16:18 2015, MaxMem=    33554432 cpu:         1.4
 (Enter /group/hpc-share/gaussian/2009D/g09/l303.exe)
 DipDrv:  MaxL=1.
 Leave Link  303 at Wed Oct 14 11:16:18 2015, MaxMem=    33554432 cpu:         0.1
 (Enter /group/hpc-share/gaussian/2009D/g09/l401.exe)
 Initial guess from the checkpoint file:  "ammonium.chk"
 B after Tr=     0.000000    0.000000    0.000000
         Rot=    1.000000    0.000000    0.000000    0.000000 Ang=   0.00 deg.
 Guess basis will be translated and rotated to current coordinates.
 JPrj=2 DoOrth=T DoCkMO=T.
 Initial guess orbital symmetries:
       Occupied  (A1) (A1) (T2) (T2) (T2)
       Virtual   (A1) (E) (E) (A1) (A1) (T2) (T2) (T2) (T2) (T2)
                 (T2) (T2) (T2) (T2) (T2) (T2) (T2)
 The electronic state of the initial guess is 1-A1.
 Generating alternative initial guess.
 ExpMin= 1.22D-01 ExpMax= 1.71D+03 ExpMxC= 2.58D+02 IAcc=1 IRadAn=         1 AccDes= 0.00D+00
 Harris functional with IExCor= 1009 and IRadAn=       1 diagonalized for initial guess.
 HarFok:  IExCor= 1009 AccDes= 0.00D+00 IRadAn=         1 IDoV= 1 UseB2=F ITyADJ=14
 ICtDFT=  3500011 ScaDFX=  1.000000  1.000000  1.000000  1.000000
 FoFCou: FMM=F IPFlag=           0 FMFlag=      100000 FMFlg1=           0
         NFxFlg=           0 DoJE=T BraDBF=F KetDBF=T FulRan=T
         wScrn=  0.000000 ICntrl=     500 IOpCl=  0 I1Cent=   200000004 NGrid=           0
         NMat0=    1 NMatS0=      1 NMatT0=    0 NMatD0=    1 NMtDS0=    0 NMtDT0=    0
 Petite list used in FoFCou.
 Harris En= -56.8579891900333    
 Leave Link  401 at Wed Oct 14 11:16:19 2015, MaxMem=    33554432 cpu:         1.5
 (Enter /group/hpc-share/gaussian/2009D/g09/l502.exe)
 Closed shell SCF:
 Using DIIS extrapolation, IDIIS=  1040.
 Integral symmetry usage will be decided dynamically.
 Keep R1 ints in memory in symmetry-blocked form, NReq=3215507.
 IVT=       20905 IEndB=       20905 NGot=    33554432 MDV=    33524253
 LenX=    33524253 LenY=    33523283
 Requested convergence on RMS density matrix=1.00D-08 within 128 cycles.
 Requested convergence on MAX density matrix=1.00D-06.
 Requested convergence on             energy=1.00D-06.
 No special actions if energy rises.
 FoFCou: FMM=F IPFlag=           0 FMFlag=           0 FMFlg1=           0
         NFxFlg=           0 DoJE=F BraDBF=F KetDBF=F FulRan=T
         wScrn=  0.000000 ICntrl=     600 IOpCl=  0 I1Cent=           0 NGrid=           0
         NMat0=    1 NMatS0=    253 NMatT0=    0 NMatD0=    1 NMtDS0=    0 NMtDT0=    0
 Petite list used in FoFCou.

 Cycle   1  Pass 1  IDiag  1:
 Inv3:  Mode=1 IEnd=      768108.
 Iteration    1 A*A^-1 deviation from unit magnitude is 3.55D-15 for     34.
 Iteration    1 A*A^-1 deviation from orthogonality  is 4.49D-15 for    417    115.
 Iteration    1 A^-1*A deviation from unit magnitude is 4.00D-15 for     89.
 Iteration    1 A^-1*A deviation from orthogonality  is 1.60D-15 for    474    124.
 E= -56.8523039752450    
 DIIS: error= 1.26D-02 at cycle   1 NSaved=   1.
 NSaved= 1 IEnMin= 1 EnMin= -56.8523039752450     IErMin= 1 ErrMin= 1.26D-02
 ErrMax= 1.26D-02  0.00D+00 EMaxC= 1.00D-01 BMatC= 2.90D-03 BMatP= 2.90D-03
 IDIUse=3 WtCom= 8.74D-01 WtEn= 1.26D-01
 Coeff-Com:  0.100D+01
 Coeff-En:   0.100D+01
 Coeff:      0.100D+01
 Recover alternate guess density for next cycle.
 RMSDP=5.75D-03 MaxDP=4.47D-02              OVMax= 0.00D+00

 Cycle   2  Pass 1  IDiag  1:
 E= -56.8430137972948     Delta-E=        0.009290177950 Rises=F Damp=F
 Switch densities from cycles 1 and 2 for lowest energy.
 DIIS: error= 2.87D-02 at cycle   2 NSaved=   2.
 NSaved= 2 IEnMin= 1 EnMin= -56.8523039752450     IErMin= 1 ErrMin= 1.26D-02
 ErrMax= 2.87D-02  0.00D+00 EMaxC= 1.00D+00 BMatC= 1.55D-02 BMatP= 2.90D-03
 IDIUse=1 WtCom= 1.00D+00 WtEn= 0.00D+00
 Coeff-Com:  0.723D+00 0.277D+00
 Coeff:      0.723D+00 0.277D+00
 Gap=     0.885 Goal=   None    Shift=    0.000
 RMSDP=3.03D-03 MaxDP=2.18D-02 DE= 9.29D-03 OVMax= 1.50D-02

 Cycle   3  Pass 1  IDiag  1:
 E= -56.8553296641514     Delta-E=       -0.012315866857 Rises=F Damp=F
 DIIS: error= 4.05D-04 at cycle   3 NSaved=   3.
 NSaved= 3 IEnMin= 3 EnMin= -56.8553296641514     IErMin= 3 ErrMin= 4.05D-04
 ErrMax= 4.05D-04  0.00D+00 EMaxC= 1.00D+00 BMatC= 2.63D-06 BMatP= 2.90D-03
 IDIUse=1 WtCom= 1.00D+00 WtEn= 0.00D+00
 Coeff-Com: -0.268D-01 0.176D-02 0.102D+01
 Coeff:     -0.268D-01 0.176D-02 0.102D+01
 Gap=     0.631 Goal=   None    Shift=    0.000
 RMSDP=7.96D-05 MaxDP=4.67D-04 DE=-1.23D-02 OVMax= 4.85D-04

 Cycle   4  Pass 1  IDiag  1:
 E= -56.8553322757294     Delta-E=       -0.000002611578 Rises=F Damp=F
 DIIS: error= 1.21D-05 at cycle   4 NSaved=   4.
 NSaved= 4 IEnMin= 4 EnMin= -56.8553322757294     IErMin= 4 ErrMin= 1.21D-05
 ErrMax= 1.21D-05  0.00D+00 EMaxC= 1.00D+00 BMatC= 3.15D-09 BMatP= 2.63D-06
 IDIUse=1 WtCom= 1.00D+00 WtEn= 0.00D+00
 Coeff-Com: -0.408D-03-0.333D-03 0.206D-01 0.980D+00
 Coeff:     -0.408D-03-0.333D-03 0.206D-01 0.980D+00
 Gap=     0.631 Goal=   None    Shift=    0.000
 RMSDP=2.03D-06 MaxDP=2.73D-05 DE=-2.61D-06 OVMax= 1.45D-05

 Cycle   5  Pass 1  IDiag  1:
 E= -56.8553322782985     Delta-E=       -0.000000002569 Rises=F Damp=F
 DIIS: error= 1.39D-06 at cycle   5 NSaved=   5.
 NSaved= 5 IEnMin= 5 EnMin= -56.8553322782985     IErMin= 5 ErrMin= 1.39D-06
 ErrMax= 1.39D-06  0.00D+00 EMaxC= 1.00D+00 BMatC= 2.81D-11 BMatP= 3.15D-09
 IDIUse=1 WtCom= 1.00D+00 WtEn= 0.00D+00
 Coeff-Com:  0.691D-04 0.309D-04-0.350D-02-0.761D-02 0.101D+01
 Coeff:      0.691D-04 0.309D-04-0.350D-02-0.761D-02 0.101D+01
 Gap=     0.631 Goal=   None    Shift=    0.000
 RMSDP=1.49D-07 MaxDP=1.54D-06 DE=-2.57D-09 OVMax= 1.47D-06

 Cycle   6  Pass 1  IDiag  1:
 E= -56.8553322783225     Delta-E=       -0.000000000024 Rises=F Damp=F
 DIIS: error= 6.67D-08 at cycle   6 NSaved=   6.
 NSaved= 6 IEnMin= 6 EnMin= -56.8553322783225     IErMin= 6 ErrMin= 6.67D-08
 ErrMax= 6.67D-08  0.00D+00 EMaxC= 1.00D+00 BMatC= 8.85D-14 BMatP= 2.81D-11
 IDIUse=1 WtCom= 1.00D+00 WtEn= 0.00D+00
 Coeff-Com: -0.942D-06-0.107D-05 0.705D-04-0.343D-02-0.145D-01 0.102D+01
 Coeff:     -0.942D-06-0.107D-05 0.705D-04-0.343D-02-0.145D-01 0.102D+01
 Gap=     0.631 Goal=   None    Shift=    0.000
 RMSDP=9.44D-09 MaxDP=1.29D-07 DE=-2.40D-11 OVMax= 7.18D-08

 Error on total polarization charges = -0.00149
 SCF Done:  E(RPBE1PBE) =  -56.8553322783     A.U. after    6 cycles
            NFock=  6  Conv=0.94D-08     -V/T= 2.0094
 KE= 5.632399248647D+01 PE=-1.609015333598D+02 EE= 3.148097537584D+01
 Leave Link  502 at Wed Oct 14 11:16:20 2015, MaxMem=    33554432 cpu:         6.6
 (Enter /group/hpc-share/gaussian/2009D/g09/l701.exe)
 Compute integral first derivatives.
 ... and contract with generalized density number  0.
 D1PCM: PCM CHGder 1st derivatives, ID1Alg=3 FixD1E=F DoIter=F DoCFld=F I1PDM=0.
 GePol: Maximum number of non-zero 1st derivatives   =     274
 Leave Link  701 at Wed Oct 14 11:16:21 2015, MaxMem=    33554432 cpu:         3.0
 (Enter /group/hpc-share/gaussian/2009D/g09/l702.exe)
 L702 exits ... SP integral derivatives will be done elsewhere.
 Leave Link  702 at Wed Oct 14 11:16:21 2015, MaxMem=    33554432 cpu:         0.2
 (Enter /group/hpc-share/gaussian/2009D/g09/l703.exe)
 Compute integral first derivatives, UseDBF=F ICtDFT=           0.
 Integral derivatives from FoFJK, PRISM(SPDF).
 Calling FoFJK, ICntrl=      2127 FMM=F ISym2X=1 I1Cent= 0 IOpClX= 0 NMat=1 NMatS=1 NMatT=0.
 FoFJK:  IHMeth= 1 ICntrl=    2127 DoSepK=F KAlg= 0 I1Cent=   0 FoldK=F
 IRaf=         0 NMat=   1 IRICut=       1 DoRegI=T DoRafI=F ISym2E= 1.
 FoFCou: FMM=F IPFlag=           0 FMFlag=      100000 FMFlg1=         800
         NFxFlg=           0 DoJE=F BraDBF=F KetDBF=F FulRan=T
         wScrn=  0.000000 ICntrl=    2127 IOpCl=  0 I1Cent=           0 NGrid=           0
         NMat0=    1 NMatS0=      1 NMatT0=    0 NMatD0=    1 NMtDS0=    0 NMtDT0=    0
 Petite list used in FoFCou.
 Leave Link  703 at Wed Oct 14 11:16:22 2015, MaxMem=    33554432 cpu:         1.6
 (Enter /group/hpc-share/gaussian/2009D/g09/l716.exe)
 Dipole        =-2.22044605D-16 6.66133815D-16 0.00000000D+00
 ***** Axes restored to original set *****
 -------------------------------------------------------------------
 Center     Atomic                   Forces (Hartrees/Bohr)
 Number     Number              X              Y              Z
 -------------------------------------------------------------------
      1        7           0.000000000    0.000000000    0.000000000
      2        1           0.000000000    0.000000000   -0.000926035
      3        1          -0.000873074    0.000000000    0.000308678
      4        1           0.000436537    0.000756105    0.000308678
      5        1           0.000436537   -0.000756105    0.000308678
 -------------------------------------------------------------------
 Cartesian Forces:  Max     0.000926035 RMS     0.000478203
 Leave Link  716 at Wed Oct 14 11:16:22 2015, MaxMem=    33554432 cpu:         0.2
 (Enter /group/hpc-share/gaussian/2009D/g09/l103.exe)

 GradGradGradGradGradGradGradGradGradGradGradGradGradGradGradGradGradGrad
 Berny optimization.
 Using GEDIIS/GDIIS optimizer.
 FormGI is forming the generalized inverse of G from B-inverse, IUseBI=4.
 Internal  Forces:  Max     0.000926035 RMS     0.000494987
 Search for a local minimum.
 Step number   2 out of a maximum of   24
 All quantities printed in internal units (Hartrees-Bohrs-Radians)
 RMS Force = .49499D-03 SwitMx=.10000D-02 MixMth= 2
 Mixed Optimization -- En-DIIS/RFO-DIIS
 Update second derivatives using D2CorX and points    1    2
 DE= -9.19D-03 DEPred=-8.89D-03 R= 1.03D+00
 TightC=F SS=  1.41D+00  RLast= 2.15D-01 DXNew= 5.0454D-01 6.4606D-01
 Trust test= 1.03D+00 RLast= 2.15D-01 DXMaxT set to 5.05D-01
 The second derivative matrix:
                          R1        R2        R3        R4        A1
           R1           0.35138
           R2           0.00210   0.35138
           R3           0.00210   0.00210   0.35138
           R4           0.00210   0.00210   0.00210   0.35138
           A1           0.00000   0.00000   0.00000   0.00000   0.16000
           A2           0.00000   0.00000   0.00000   0.00000   0.00000
           A3           0.00000   0.00000   0.00000   0.00000   0.00000
           A4           0.00000   0.00000   0.00000   0.00000   0.00000
           A5           0.00000   0.00000   0.00000   0.00000   0.00000
           A6           0.00000   0.00000   0.00000   0.00000   0.00000
           D1           0.00000   0.00000   0.00000   0.00000   0.00000
           D2           0.00000   0.00000   0.00000   0.00000   0.00000
           D3           0.00000   0.00000   0.00000   0.00000   0.00000
           D4           0.00000   0.00000   0.00000   0.00000   0.00000
                          A2        A3        A4        A5        A6
           A2           0.16000
           A3           0.00000   0.16000
           A4           0.00000   0.00000   0.16000
           A5           0.00000   0.00000   0.00000   0.16000
           A6           0.00000   0.00000   0.00000   0.00000   0.16000
           D1           0.00000   0.00000   0.00000   0.00000   0.00000
           D2           0.00000   0.00000   0.00000   0.00000   0.00000
           D3           0.00000   0.00000   0.00000   0.00000   0.00000
           D4           0.00000   0.00000   0.00000   0.00000   0.00000
                          D1        D2        D3        D4
           D1           0.00230
           D2           0.00000   0.00230
           D3           0.00000   0.00000   0.00230
           D4           0.00000   0.00000   0.00000   0.00230
 ITU=  1  0
 Use linear search instead of GDIIS.
     Eigenvalues ---    0.05082   0.05715   0.08641   0.16000   0.16000
     Eigenvalues ---    0.34928   0.34928   0.34928   0.35767
 RFO step:  Lambda= 0.00000000D+00 EMin= 5.08230769D-02
 Quartic linear search produced a step of  0.02020.
 Iteration  1 RMS(Cart)=  0.00116254 RMS(Int)=  0.00000000
 Iteration  2 RMS(Cart)=  0.00000000 RMS(Int)=  0.00000000
 ITry= 1 IFail=0 DXMaxC= 2.17D-03 DCOld= 1.00D+10 DXMaxT= 5.05D-01 DXLimC= 3.00D+00 Rises=F
 ClnCor:  largest displacement from symmetrization is 3.38D-14 for atom     5.
 Variable       Old X    -DE/DX   Delta X   Delta X   Delta X     New X
                                 (Linear)    (Quad)   (Total)
    R1        1.95024  -0.00093  -0.00217   0.00000  -0.00217   1.94806
    R2        1.95024  -0.00093  -0.00217   0.00000  -0.00217   1.94806
    R3        1.95024  -0.00093  -0.00217   0.00000  -0.00217   1.94806
    R4        1.95024  -0.00093  -0.00217   0.00000  -0.00217   1.94806
    A1        1.91063   0.00000   0.00000   0.00000   0.00000   1.91063
    A2        1.91063   0.00000   0.00000   0.00000   0.00000   1.91063
    A3        1.91063   0.00000   0.00000   0.00000   0.00000   1.91063
    A4        1.91063   0.00000   0.00000   0.00000   0.00000   1.91063
    A5        1.91063   0.00000   0.00000   0.00000   0.00000   1.91063
    A6        1.91063   0.00000   0.00000   0.00000   0.00000   1.91063
    D1       -2.09440   0.00000   0.00000   0.00000   0.00000  -2.09440
    D2        2.09440   0.00000   0.00000   0.00000   0.00000   2.09440
    D3       -2.09440   0.00000   0.00000   0.00000   0.00000  -2.09440
    D4        2.09440   0.00000   0.00000   0.00000   0.00000   2.09440
         Item               Value     Threshold  Converged?
 Maximum Force            0.000926     0.000450     NO 
 RMS     Force            0.000495     0.000300     NO 
 Maximum Displacement     0.002175     0.001800     NO 
 RMS     Displacement     0.001163     0.001200     YES
 Predicted change in Energy=-4.672439D-06
 Lowest energy point so far.  Saving SCF results.
 GradGradGradGradGradGradGradGradGradGradGradGradGradGradGradGradGradGrad

 Leave Link  103 at Wed Oct 14 11:16:22 2015, MaxMem=    33554432 cpu:         0.0
 (Enter /group/hpc-share/gaussian/2009D/g09/l202.exe)
                          Input orientation:                          
 ---------------------------------------------------------------------
 Center     Atomic      Atomic             Coordinates (Angstroms)
 Number     Number       Type             X           Y           Z
 ---------------------------------------------------------------------
      1          7           0        0.000000    0.000000    0.000000
      2          1           0        0.000000    0.000000    1.030869
      3          1           0        0.971913    0.000000   -0.343623
      4          1           0       -0.485957   -0.841701   -0.343623
      5          1           0       -0.485957    0.841701   -0.343623
 ---------------------------------------------------------------------
                    Distance matrix (angstroms):
                    1          2          3          4          5
     1  N    0.000000
     2  H    1.030869   0.000000
     3  H    1.030869   1.683403   0.000000
     4  H    1.030869   1.683403   1.683403   0.000000
     5  H    1.030869   1.683403   1.683403   1.683403   0.000000
 Stoichiometry    H4N(1+)
 Framework group  TD[O(N),4C3(H)]
 Deg. of freedom     1
 Full point group                 TD      NOp  24
 RotChk:  IX=0 Diff= 1.25D-15
 Largest Abelian subgroup         D2      NOp   4
 Largest concise Abelian subgroup D2      NOp   4
                         Standard orientation:                         
 ---------------------------------------------------------------------
 Center     Atomic      Atomic             Coordinates (Angstroms)
 Number     Number       Type             X           Y           Z
 ---------------------------------------------------------------------
      1          7           0        0.000000    0.000000    0.000000
      2          1           0        0.595173    0.595173    0.595173
      3          1           0       -0.595173   -0.595173    0.595173
      4          1           0       -0.595173    0.595173   -0.595173
      5          1           0        0.595173   -0.595173   -0.595173
 ---------------------------------------------------------------------
 Rotational constants (GHZ):    176.9522129    176.9522129    176.9522129
 Leave Link  202 at Wed Oct 14 11:16:23 2015, MaxMem=    33554432 cpu:         0.0
 (Enter /group/hpc-share/gaussian/2009D/g09/l301.exe)
 Basis read from rwf:  (5D, 7F)
 No pseudopotential information found on rwf file.
 There are     8 symmetry adapted cartesian basis functions of A   symmetry.
 There are     5 symmetry adapted cartesian basis functions of B1  symmetry.
 There are     5 symmetry adapted cartesian basis functions of B2  symmetry.
 There are     5 symmetry adapted cartesian basis functions of B3  symmetry.
 There are     7 symmetry adapted basis functions of A   symmetry.
 There are     5 symmetry adapted basis functions of B1  symmetry.
 There are     5 symmetry adapted basis functions of B2  symmetry.
 There are     5 symmetry adapted basis functions of B3  symmetry.
    22 basis functions,    41 primitive gaussians,    23 cartesian basis functions
     5 alpha electrons        5 beta electrons
       nuclear repulsion energy        16.2593656970 Hartrees.
 IExCor= 1009 DFT=T Ex+Corr=PBE1PBE ExCW=0 ScaHFX=  0.250000
 ScaDFX=  0.750000  0.750000  1.000000  1.000000 ScalE2=  1.000000  1.000000
 IRadAn=      0 IRanWt=     -1 IRanGd=            0 ICorTp=0 IEmpDi=  4
 NAtoms=    5 NActive=    5 NUniq=    2 SFac= 4.00D+00 NAtFMM=   60 NAOKFM=F Big=F
 Integral buffers will be    131072 words long.
 Raffenetti 2 integral format.
 Two-electron integral symmetry is turned on.
 No density basis found on file   724.
 ------------------------------------------------------------------------------
 Polarizable Continuum Model (PCM)
 =================================
 Model                : PCM (using non-symmetric T matrix).
 Atomic radii         : UFF (Universal Force Field).
 Polarization charges : Total charges.
 Charge compensation  : None.
 Solution method      : On-the-fly selection.
 Cavity type          : Scaled VdW (van der Waals Surface) (Alpha=1.100).
 Cavity algorithm     : GePol (No added spheres)
                        Default sphere list used, NSphG=    5.
                        Lebedev-Laikov grids with approx.  5.0 points / Ang**2.
                        Smoothing algorithm: Karplus/York (Gamma=1.0000).
                        Polarization charges: spherical gaussians, with
                                              point-specific exponents (IZeta= 3).
                        Self-potential: point-specific (ISelfS= 7).
                        Self-field    : sphere-specific E.n sum rule (ISelfD= 2).
 1st derivatives      : Analytical E(r).r(x)/FMM algorithm (CHGder, D1EAlg=3).
                        Cavity 1st derivative terms included.
 Solvent              : DiethylEther, Eps=   4.240000 Eps(inf)=   1.829527
 ------------------------------------------------------------------------------
 Spheres list:
 ISph  on   Nord     Re0    Alpha      Xe            Ye            Ze
    1   N      1    1.8300  1.100      0.000000      0.000000      0.000000
    2   H      2    1.4430  1.100      0.595173      0.595173      0.595173
    3   H      3    1.4430  1.100     -0.595173     -0.595173      0.595173
    4   H      4    1.4430  1.100     -0.595173      0.595173     -0.595173
    5   H      5    1.4430  1.100      0.595173     -0.595173     -0.595173
 ------------------------------------------------------------------------------
 GePol: Number of generator spheres                  =       5
 GePol: Total number of spheres                      =       5
 GePol: Number of exposed spheres                    =       5 (100.00%)
 GePol: Number of points                             =     506
 GePol: Average weight of points                     =       0.13
 GePol: Minimum weight of points                     =   0.66D-03
 GePol: Maximum weight of points                     =    0.20212
 GePol: Number of points with low weight             =      24
 GePol: Fraction of low-weight points (<1% of avg)   =       4.74%
 GePol: Cavity surface area                          =     66.952 Ang**2
 GePol: Cavity volume                                =     47.835 Ang**3
 Leave Link  301 at Wed Oct 14 11:16:23 2015, MaxMem=    33554432 cpu:         0.7
 (Enter /group/hpc-share/gaussian/2009D/g09/l302.exe)
 NPDir=0 NMtPBC=     1 NCelOv=     1 NCel=       1 NClECP=     1 NCelD=      1
         NCelK=      1 NCelE2=     1 NClLst=     1 CellRange=     0.0.
 One-electron integrals computed using PRISM.
 One-electron integral symmetry used in STVInt
 NBasis=    22 RedAO= T EigKep=  4.86D-02  NBF=     7     5     5     5
 NBsUse=    22 1.00D-06 EigRej= -1.00D+00 NBFU=     7     5     5     5
 Precomputing XC quadrature grid using
 IXCGrd= 4 IRadAn=           0 IRanWt=          -1 IRanGd=           0 AccXCQ= 0.00D+00.
 Generated NRdTot=       0 NPtTot=           0 NUsed=           0 NTot=          32
 NSgBfM=    23    23    23    23    23 MxSgAt=     5 MxSgA2=     5.
 Leave Link  302 at Wed Oct 14 11:16:23 2015, MaxMem=    33554432 cpu:         1.5
 (Enter /group/hpc-share/gaussian/2009D/g09/l303.exe)
 DipDrv:  MaxL=1.
 Leave Link  303 at Wed Oct 14 11:16:23 2015, MaxMem=    33554432 cpu:         0.2
 (Enter /group/hpc-share/gaussian/2009D/g09/l401.exe)
 Initial guess from the checkpoint file:  "ammonium.chk"
 B after Tr=     0.000000    0.000000    0.000000
         Rot=    1.000000    0.000000    0.000000    0.000000 Ang=   0.00 deg.
 Guess basis will be translated and rotated to current coordinates.
 JPrj=2 DoOrth=T DoCkMO=T.
 Initial guess orbital symmetries:
       Occupied  (A1) (A1) (T2) (T2) (T2)
       Virtual   (A1) (E) (E) (A1) (A1) (T2) (T2) (T2) (T2) (T2)
                 (T2) (T2) (T2) (T2) (T2) (T2) (T2)
 The electronic state of the initial guess is 1-A1.
 Leave Link  401 at Wed Oct 14 11:16:23 2015, MaxMem=    33554432 cpu:         0.7
 (Enter /group/hpc-share/gaussian/2009D/g09/l502.exe)
 Closed shell SCF:
 Using DIIS extrapolation, IDIIS=  1040.
 Integral symmetry usage will be decided dynamically.
 Keep R1 ints in memory in symmetry-blocked form, NReq=3215507.
 IVT=       20905 IEndB=       20905 NGot=    33554432 MDV=    33524253
 LenX=    33524253 LenY=    33523283
 Requested convergence on RMS density matrix=1.00D-08 within 128 cycles.
 Requested convergence on MAX density matrix=1.00D-06.
 Requested convergence on             energy=1.00D-06.
 No special actions if energy rises.
 FoFCou: FMM=F IPFlag=           0 FMFlag=           0 FMFlg1=           0
         NFxFlg=           0 DoJE=F BraDBF=F KetDBF=F FulRan=T
         wScrn=  0.000000 ICntrl=     600 IOpCl=  0 I1Cent=           0 NGrid=           0
         NMat0=    1 NMatS0=    253 NMatT0=    0 NMatD0=    1 NMtDS0=    0 NMtDT0=    0
 Petite list used in FoFCou.

 Cycle   1  Pass 1  IDiag  1:
 Inv3:  Mode=1 IEnd=      768108.
 Iteration    1 A*A^-1 deviation from unit magnitude is 6.22D-15 for    312.
 Iteration    1 A*A^-1 deviation from orthogonality  is 2.75D-15 for    406    281.
 Iteration    1 A^-1*A deviation from unit magnitude is 5.22D-15 for    136.
 Iteration    1 A^-1*A deviation from orthogonality  is 1.66D-15 for    404    403.
 E= -56.8553349288861    
 DIIS: error= 2.67D-04 at cycle   1 NSaved=   1.
 NSaved= 1 IEnMin= 1 EnMin= -56.8553349288861     IErMin= 1 ErrMin= 2.67D-04
 ErrMax= 2.67D-04  0.00D+00 EMaxC= 1.00D-01 BMatC= 1.32D-06 BMatP= 1.32D-06
 IDIUse=3 WtCom= 9.97D-01 WtEn= 2.67D-03
 Coeff-Com:  0.100D+01
 Coeff-En:   0.100D+01
 Coeff:      0.100D+01
 Gap=     0.922 Goal=   None    Shift=    0.000
 RMSDP=8.53D-05 MaxDP=6.18D-04              OVMax= 5.32D-04

 Cycle   2  Pass 1  IDiag  1:
 E= -56.8553353448451     Delta-E=       -0.000000415959 Rises=F Damp=F
 DIIS: error= 2.55D-04 at cycle   2 NSaved=   2.
 NSaved= 2 IEnMin= 2 EnMin= -56.8553353448451     IErMin= 2 ErrMin= 2.55D-04
 ErrMax= 2.55D-04  0.00D+00 EMaxC= 1.00D-01 BMatC= 1.14D-06 BMatP= 1.32D-06
 IDIUse=3 WtCom= 9.97D-01 WtEn= 2.55D-03
 Coeff-Com:  0.480D+00 0.520D+00
 Coeff-En:   0.378D+00 0.622D+00
 Coeff:      0.480D+00 0.520D+00
 Gap=     0.631 Goal=   None    Shift=    0.000
 RMSDP=3.36D-05 MaxDP=3.16D-04 DE=-4.16D-07 OVMax= 2.91D-04

 Cycle   3  Pass 1  IDiag  1:
 E= -56.8553362721694     Delta-E=       -0.000000927324 Rises=F Damp=F
 DIIS: error= 3.84D-05 at cycle   3 NSaved=   3.
 NSaved= 3 IEnMin= 3 EnMin= -56.8553362721694     IErMin= 3 ErrMin= 3.84D-05
 ErrMax= 3.84D-05  0.00D+00 EMaxC= 1.00D-01 BMatC= 2.40D-08 BMatP= 1.14D-06
 IDIUse=1 WtCom= 1.00D+00 WtEn= 0.00D+00
 Coeff-Com: -0.212D-01 0.113D+00 0.908D+00
 Coeff:     -0.212D-01 0.113D+00 0.908D+00
 Gap=     0.631 Goal=   None    Shift=    0.000
 RMSDP=4.38D-06 MaxDP=3.83D-05 DE=-9.27D-07 OVMax= 3.67D-05

 Cycle   4  Pass 1  IDiag  1:
 E= -56.8553362917962     Delta-E=       -0.000000019627 Rises=F Damp=F
 DIIS: error= 4.91D-07 at cycle   4 NSaved=   4.
 NSaved= 4 IEnMin= 4 EnMin= -56.8553362917962     IErMin= 4 ErrMin= 4.91D-07
 ErrMax= 4.91D-07  0.00D+00 EMaxC= 1.00D-01 BMatC= 3.74D-12 BMatP= 2.40D-08
 IDIUse=1 WtCom= 1.00D+00 WtEn= 0.00D+00
 Coeff-Com:  0.774D-03-0.432D-02-0.472D-01 0.105D+01
 Coeff:      0.774D-03-0.432D-02-0.472D-01 0.105D+01
 Gap=     0.631 Goal=   None    Shift=    0.000
 RMSDP=6.06D-08 MaxDP=5.31D-07 DE=-1.96D-08 OVMax= 4.70D-07

 Cycle   5  Pass 1  IDiag  1:
 E= -56.8553362917993     Delta-E=       -0.000000000003 Rises=F Damp=F
 DIIS: error= 3.95D-09 at cycle   5 NSaved=   5.
 NSaved= 5 IEnMin= 5 EnMin= -56.8553362917993     IErMin= 5 ErrMin= 3.95D-09
 ErrMax= 3.95D-09  0.00D+00 EMaxC= 1.00D-01 BMatC= 1.38D-16 BMatP= 3.74D-12
 IDIUse=1 WtCom= 1.00D+00 WtEn= 0.00D+00
 Coeff-Com: -0.167D-06 0.490D-05 0.320D-03-0.191D-01 0.102D+01
 Coeff:     -0.167D-06 0.490D-05 0.320D-03-0.191D-01 0.102D+01
 Gap=     0.631 Goal=   None    Shift=    0.000
 RMSDP=6.85D-10 MaxDP=9.61D-09 DE=-3.11D-12 OVMax= 6.12D-09

 Error on total polarization charges = -0.00149
 SCF Done:  E(RPBE1PBE) =  -56.8553362918     A.U. after    5 cycles
            NFock=  5  Conv=0.68D-09     -V/T= 2.0093
 KE= 5.633138077140D+01 PE=-1.609396917703D+02 EE= 3.149360901002D+01
 Leave Link  502 at Wed Oct 14 11:16:24 2015, MaxMem=    33554432 cpu:         6.2
 (Enter /group/hpc-share/gaussian/2009D/g09/l701.exe)
 Compute integral first derivatives.
 ... and contract with generalized density number  0.
 D1PCM: PCM CHGder 1st derivatives, ID1Alg=3 FixD1E=F DoIter=F DoCFld=F I1PDM=0.
 GePol: Maximum number of non-zero 1st derivatives   =     274
 Leave Link  701 at Wed Oct 14 11:16:25 2015, MaxMem=    33554432 cpu:         2.8
 (Enter /group/hpc-share/gaussian/2009D/g09/l702.exe)
 L702 exits ... SP integral derivatives will be done elsewhere.
 Leave Link  702 at Wed Oct 14 11:16:25 2015, MaxMem=    33554432 cpu:         0.1
 (Enter /group/hpc-share/gaussian/2009D/g09/l703.exe)
 Compute integral first derivatives, UseDBF=F ICtDFT=           0.
 Integral derivatives from FoFJK, PRISM(SPDF).
 Calling FoFJK, ICntrl=      2127 FMM=F ISym2X=1 I1Cent= 0 IOpClX= 0 NMat=1 NMatS=1 NMatT=0.
 FoFJK:  IHMeth= 1 ICntrl=    2127 DoSepK=F KAlg= 0 I1Cent=   0 FoldK=F
 IRaf=         0 NMat=   1 IRICut=       1 DoRegI=T DoRafI=F ISym2E= 1.
 FoFCou: FMM=F IPFlag=           0 FMFlag=      100000 FMFlg1=         800
         NFxFlg=           0 DoJE=F BraDBF=F KetDBF=F FulRan=T
         wScrn=  0.000000 ICntrl=    2127 IOpCl=  0 I1Cent=           0 NGrid=           0
         NMat0=    1 NMatS0=      1 NMatT0=    0 NMatD0=    1 NMtDS0=    0 NMtDT0=    0
 Petite list used in FoFCou.
 Leave Link  703 at Wed Oct 14 11:16:25 2015, MaxMem=    33554432 cpu:         1.3
 (Enter /group/hpc-share/gaussian/2009D/g09/l716.exe)
 Dipole        =-8.88178420D-16 2.22044605D-16-2.22044605D-16
 ***** Axes restored to original set *****
 -------------------------------------------------------------------
 Center     Atomic                   Forces (Hartrees/Bohr)
 Number     Number              X              Y              Z
 -------------------------------------------------------------------
      1        7           0.000000000    0.000000000    0.000000000
      2        1           0.000000000    0.000000000    0.000004472
      3        1           0.000004216    0.000000000   -0.000001491
      4        1          -0.000002108   -0.000003651   -0.000001491
      5        1          -0.000002108    0.000003651   -0.000001491
 -------------------------------------------------------------------
 Cartesian Forces:  Max     0.000004472 RMS     0.000002309
 Leave Link  716 at Wed Oct 14 11:16:25 2015, MaxMem=    33554432 cpu:         0.1
 (Enter /group/hpc-share/gaussian/2009D/g09/l103.exe)

 GradGradGradGradGradGradGradGradGradGradGradGradGradGradGradGradGradGrad
 Berny optimization.
 Using GEDIIS/GDIIS optimizer.
 FormGI is forming the generalized inverse of G from B-inverse, IUseBI=4.
 Internal  Forces:  Max     0.000004472 RMS     0.000002390
 Search for a local minimum.
 Step number   3 out of a maximum of   24
 All quantities printed in internal units (Hartrees-Bohrs-Radians)
 RMS Force = .23904D-05 SwitMx=.10000D-02 MixMth= 2
 Mixed Optimization -- En-DIIS/RFO-DIIS
 Swapping is turned off.
 Update second derivatives using D2CorX and points    1    2    3
 DE= -4.01D-06 DEPred=-4.67D-06 R= 8.59D-01
 TightC=F SS=  1.41D+00  RLast= 4.35D-03 DXNew= 8.4853D-01 1.3049D-02
 Trust test= 8.59D-01 RLast= 4.35D-03 DXMaxT set to 5.05D-01
 The second derivative matrix:
                          R1        R2        R3        R4        A1
           R1           0.36892
           R2           0.01964   0.36892
           R3           0.01964   0.01964   0.36892
           R4           0.01964   0.01964   0.01964   0.36892
           A1           0.00000   0.00000   0.00000   0.00000   0.16000
           A2           0.00000   0.00000   0.00000   0.00000   0.00000
           A3           0.00000   0.00000   0.00000   0.00000   0.00000
           A4           0.00000   0.00000   0.00000   0.00000   0.00000
           A5           0.00000   0.00000   0.00000   0.00000   0.00000
           A6           0.00000   0.00000   0.00000   0.00000   0.00000
           D1           0.00000   0.00000   0.00000   0.00000   0.00000
           D2           0.00000   0.00000   0.00000   0.00000   0.00000
           D3           0.00000   0.00000   0.00000   0.00000   0.00000
           D4           0.00000   0.00000   0.00000   0.00000   0.00000
                          A2        A3        A4        A5        A6
           A2           0.16000
           A3           0.00000   0.16000
           A4           0.00000   0.00000   0.16000
           A5           0.00000   0.00000   0.00000   0.16000
           A6           0.00000   0.00000   0.00000   0.00000   0.16000
           D1           0.00000   0.00000   0.00000   0.00000   0.00000
           D2           0.00000   0.00000   0.00000   0.00000   0.00000
           D3           0.00000   0.00000   0.00000   0.00000   0.00000
           D4           0.00000   0.00000   0.00000   0.00000   0.00000
                          D1        D2        D3        D4
           D1           0.00230
           D2           0.00000   0.00230
           D3           0.00000   0.00000   0.00230
           D4           0.00000   0.00000   0.00000   0.00230
 ITU=  1  1  0
     Eigenvalues ---    0.05082   0.05715   0.08641   0.16000   0.16000
     Eigenvalues ---    0.34928   0.34928   0.34928   0.42784
 En-DIIS/RFO-DIIS IScMMF=        0 using points:     3    2
 RFO step:  Lambda= 0.00000000D+00.
 NNeg= 0 NP= 2 Switch=  2.50D-03 Rises=F DC=  4.01D-06 SmlDif=  1.00D-05
 RMS Error=  0.3654555247D-05 NUsed= 2 EDIIS=F
 DidBck=F Rises=F RFO-DIIS coefs:    0.99519    0.00481
 Iteration  1 RMS(Cart)=  0.00000559 RMS(Int)=  0.00000000
 Iteration  2 RMS(Cart)=  0.00000000 RMS(Int)=  0.00000000
 ITry= 1 IFail=0 DXMaxC= 1.05D-05 DCOld= 1.00D+10 DXMaxT= 5.05D-01 DXLimC= 3.00D+00 Rises=F
 ClnCor:  largest displacement from symmetrization is 1.69D-14 for atom     5.
 Variable       Old X    -DE/DX   Delta X   Delta X   Delta X     New X
                                 (Linear)    (Quad)   (Total)
    R1        1.94806   0.00000   0.00001   0.00000   0.00001   1.94807
    R2        1.94806   0.00000   0.00001   0.00000   0.00001   1.94807
    R3        1.94806   0.00000   0.00001   0.00000   0.00001   1.94807
    R4        1.94806   0.00000   0.00001   0.00000   0.00001   1.94807
    A1        1.91063   0.00000   0.00000   0.00000   0.00000   1.91063
    A2        1.91063   0.00000   0.00000   0.00000   0.00000   1.91063
    A3        1.91063   0.00000   0.00000   0.00000   0.00000   1.91063
    A4        1.91063   0.00000   0.00000   0.00000   0.00000   1.91063
    A5        1.91063   0.00000   0.00000   0.00000   0.00000   1.91063
    A6        1.91063   0.00000   0.00000   0.00000   0.00000   1.91063
    D1       -2.09440   0.00000   0.00000   0.00000   0.00000  -2.09440
    D2        2.09440   0.00000   0.00000   0.00000   0.00000   2.09440
    D3       -2.09440   0.00000   0.00000   0.00000   0.00000  -2.09440
    D4        2.09440   0.00000   0.00000   0.00000   0.00000   2.09440
         Item               Value     Threshold  Converged?
 Maximum Force            0.000004     0.000450     YES
 RMS     Force            0.000002     0.000300     YES
 Maximum Displacement     0.000010     0.001800     YES
 RMS     Displacement     0.000006     0.001200     YES
 Predicted change in Energy=-9.349042D-11
 Optimization completed.
    -- Stationary point found.
                           ----------------------------
                           !   Optimized Parameters   !
                           ! (Angstroms and Degrees)  !
 --------------------------                            --------------------------
 ! Name  Definition              Value          Derivative Info.                !
 --------------------------------------------------------------------------------
 ! R1    R(1,2)                  1.0309         -DE/DX =    0.0                 !
 ! R2    R(1,3)                  1.0309         -DE/DX =    0.0                 !
 ! R3    R(1,4)                  1.0309         -DE/DX =    0.0                 !
 ! R4    R(1,5)                  1.0309         -DE/DX =    0.0                 !
 ! A1    A(2,1,3)              109.4712         -DE/DX =    0.0                 !
 ! A2    A(2,1,4)              109.4712         -DE/DX =    0.0                 !
 ! A3    A(2,1,5)              109.4712         -DE/DX =    0.0                 !
 ! A4    A(3,1,4)              109.4712         -DE/DX =    0.0                 !
 ! A5    A(3,1,5)              109.4712         -DE/DX =    0.0                 !
 ! A6    A(4,1,5)              109.4712         -DE/DX =    0.0                 !
 ! D1    D(2,1,4,3)           -120.0            -DE/DX =    0.0                 !
 ! D2    D(2,1,5,3)            120.0            -DE/DX =    0.0                 !
 ! D3    D(2,1,5,4)           -120.0            -DE/DX =    0.0                 !
 ! D4    D(3,1,5,4)            120.0            -DE/DX =    0.0                 !
 --------------------------------------------------------------------------------
 Lowest energy point so far.  Saving SCF results.
 GradGradGradGradGradGradGradGradGradGradGradGradGradGradGradGradGradGrad

 Largest change from initial coordinates is atom    5       0.058 Angstoms.
 Leave Link  103 at Wed Oct 14 11:16:25 2015, MaxMem=    33554432 cpu:         0.0
 (Enter /group/hpc-share/gaussian/2009D/g09/l202.exe)
                          Input orientation:                          
 ---------------------------------------------------------------------
 Center     Atomic      Atomic             Coordinates (Angstroms)
 Number     Number       Type             X           Y           Z
 ---------------------------------------------------------------------
      1          7           0        0.000000    0.000000    0.000000
      2          1           0        0.000000    0.000000    1.030869
      3          1           0        0.971913    0.000000   -0.343623
      4          1           0       -0.485957   -0.841701   -0.343623
      5          1           0       -0.485957    0.841701   -0.343623
 ---------------------------------------------------------------------
                    Distance matrix (angstroms):
                    1          2          3          4          5
     1  N    0.000000
     2  H    1.030869   0.000000
     3  H    1.030869   1.683403   0.000000
     4  H    1.030869   1.683403   1.683403   0.000000
     5  H    1.030869   1.683403   1.683403   1.683403   0.000000
 Stoichiometry    H4N(1+)
 Framework group  TD[O(N),4C3(H)]
 Deg. of freedom     1
 Full point group                 TD      NOp  24
 RotChk:  IX=0 Diff= 8.77D-16
 Largest Abelian subgroup         D2      NOp   4
 Largest concise Abelian subgroup D2      NOp   4
                         Standard orientation:                         
 ---------------------------------------------------------------------
 Center     Atomic      Atomic             Coordinates (Angstroms)
 Number     Number       Type             X           Y           Z
 ---------------------------------------------------------------------
      1          7           0        0.000000    0.000000    0.000000
      2          1           0        0.595173    0.595173    0.595173
      3          1           0       -0.595173   -0.595173    0.595173
      4          1           0       -0.595173    0.595173   -0.595173
      5          1           0        0.595173   -0.595173   -0.595173
 ---------------------------------------------------------------------
 Rotational constants (GHZ):    176.9522129    176.9522129    176.9522129
 Leave Link  202 at Wed Oct 14 11:16:25 2015, MaxMem=    33554432 cpu:         0.0
 (Enter /group/hpc-share/gaussian/2009D/g09/l601.exe)
 Copying SCF densities to generalized density rwf, IOpCl= 0 IROHF=0.

 **********************************************************************

            Population analysis using the SCF density.

 **********************************************************************

 Orbital symmetries:
       Occupied  (A1) (A1) (T2) (T2) (T2)
       Virtual   (A1) (T2) (T2) (T2) (T2) (T2) (T2) (A1) (T2) (T2)
                 (T2) (A1) (E) (E) (T2) (T2) (T2)
 The electronic state is 1-A1.
 Alpha  occ. eigenvalues --  -14.57749  -1.08208  -0.66123  -0.66123  -0.66123
 Alpha virt. eigenvalues --   -0.02988   0.05162   0.05162   0.05162   0.39687
 Alpha virt. eigenvalues --    0.39687   0.39687   0.58611   0.73844   0.73844
 Alpha virt. eigenvalues --    0.73844   0.94275   1.86336   1.86336   2.39496
 Alpha virt. eigenvalues --    2.39496   2.39496
          Condensed to atoms (all electrons):
               1          2          3          4          5
     1  N    6.159297   0.334690   0.334690   0.334690   0.334690
     2  H    0.334690   0.311478  -0.006894  -0.006894  -0.006894
     3  H    0.334690  -0.006894   0.311478  -0.006894  -0.006894
     4  H    0.334690  -0.006894  -0.006894   0.311478  -0.006894
     5  H    0.334690  -0.006894  -0.006894  -0.006894   0.311478
 Mulliken charges:
               1
     1  N   -0.498058
     2  H    0.374514
     3  H    0.374514
     4  H    0.374514
     5  H    0.374514
 Sum of Mulliken charges =   1.00000
 Mulliken charges with hydrogens summed into heavy atoms:
               1
     1  N    1.000000
 Electronic spatial extent (au):  <R**2>=             25.0008
 Charge=              1.0000 electrons
 Dipole moment (field-independent basis, Debye):
    X=              0.0000    Y=              0.0000    Z=              0.0000  Tot=              0.0000
 Quadrupole moment (field-independent basis, Debye-Ang):
   XX=             -4.4032   YY=             -4.4032   ZZ=             -4.4032
   XY=              0.0000   XZ=              0.0000   YZ=              0.0000
 Traceless Quadrupole moment (field-independent basis, Debye-Ang):
   XX=              0.0000   YY=              0.0000   ZZ=              0.0000
   XY=              0.0000   XZ=              0.0000   YZ=              0.0000
 Octapole moment (field-independent basis, Debye-Ang**2):
  XXX=              0.0000  YYY=              0.0000  ZZZ=              0.0000  XYY=              0.0000
  XXY=              0.0000  XXZ=              0.0000  XZZ=              0.0000  YZZ=              0.0000
  YYZ=              0.0000  XYZ=              1.6797
 Hexadecapole moment (field-independent basis, Debye-Ang**3):
 XXXX=             -7.2110 YYYY=             -7.2110 ZZZZ=             -7.2110 XXXY=              0.0000
 XXXZ=              0.0000 YYYX=              0.0000 YYYZ=              0.0000 ZZZX=              0.0000
 ZZZY=              0.0000 XXYY=             -1.6245 XXZZ=             -1.6245 YYZZ=             -1.6245
 XXYZ=              0.0000 YYXZ=              0.0000 ZZXY=              0.0000
 N-N= 1.625936569704D+01 E-N=-1.609396917206D+02  KE= 5.633138077140D+01
 Symmetry A    KE= 4.777382777936D+01
 Symmetry B1   KE= 2.852517664012D+00
 Symmetry B2   KE= 2.852517664012D+00
 Symmetry B3   KE= 2.852517664012D+00
 No NMR shielding tensors so no spin-rotation constants.
 Leave Link  601 at Wed Oct 14 11:16:26 2015, MaxMem=    33554432 cpu:         1.6
 (Enter /group/hpc-share/gaussian/2009D/g09/l9999.exe)
 B after Tr=     0.000000    0.000000    0.000002
         Rot=    1.000000    0.000000    0.000000    0.000000 Ang=   0.00 deg.
 Final structure in terms of initial Z-matrix:
 N
 H,1,hn2
 H,1,hn3,2,hnh3
 H,1,hn4,2,hnh4,3,dih4,0
 H,1,hn5,2,hnh5,3,dih5,0
      Variables:
 hn2=1.03086943
 hn3=1.03086943
 hnh3=109.47122063
 hn4=1.03086943
 hnh4=109.47122063
 dih4=120.
 hn5=1.03086943
 hnh5=109.47122063
 dih5=-120.
 1\1\GINC-HPC-CN14\FOpt\RPBE1PBE\Gen\H4N1(1+)\6498IVANOVM\14-Oct-2015\0
 \\#P PBE1PBE/gen scrf(pcm,solvent=diethylether) scf(tight) opt\\ammoni
 um\\1,1\N,0.,0.,0.\H,0.,0.,1.0308694306\H,0.9719130198,0.,-0.343623143
 5\H,-0.4859565099,-0.8417013654,-0.3436231435\H,-0.4859565099,0.841701
 3654,-0.3436231435\\Version=EM64L-G09RevD.01\State=1-A1\HF=-56.8553363
 \RMSD=6.850e-10\RMSF=2.309e-06\Dipole=0.,0.,0.\Quadrupole=0.,0.,0.,0.,
 0.,0.\PG=TD [O(N1),4C3(H1)]\\@


      TO SUSPECT YOUR OWN MORTALITY IS TO KNOW THE BEGINNING OF TERROR.
      TO LEARN IRREFUTABLY THAT YOU ARE MORTAL IS TO KNOW THE END
      OF TERROR.

                                                  -- JESSICA
                                                     CHILDREN OF DUNE
                                                     BY FRANK HERBERT
 Job cpu time:       0 days  0 hours  0 minutes 58.9 seconds.
 File lengths (MBytes):  RWF=     11 Int=      0 D2E=      0 Chk=      2 Scr=      1
 Normal termination of Gaussian 09 at Wed Oct 14 11:16:26 2015.
