 Entering Gaussian System, Link 0=g09
 Input=cis-mesno.com
 Output=cis-mesno.log
 AtFile(1): cis-mesno.zmat
             o
             n   1 no2
             s    2 sn3         1 sno3
             c    3 cs4         1 cso4          2 dih4
             h    4 hc5         3 hcs5          1 dih5
             h    4 hc6         3 hcs6          5 dih6
             h    4 hc7         3 hcs7          5 dih7
            
            no2         1.400000
            sn3         1.625000
            sno3        109.471
            cs4         1.710000
            cso4        109.471
            dih4        180.000
            hc5         1.089000
            hcs5        109.471
            dih5        180.000
            hc6         1.089000
            hcs6        109.471
            dih6        120.000
            hc7         1.089000
            hcs7        109.471
            dih7        240.000
 AtFile(1): /home/MARQNET/talipovm/basis-library/def2-SV(P)+d.gbs
            !  Def2-SV(P)  EMSL  Basis Set Exchange Library   3/29/11 8:36 AM
            ! Elements                             References
            ! --------                             ----------
            ! H He Li Be B C N O F Ne Na Mg Al Si P S Cl Ar K Ca Sc Ti V Cr Mn Fe Co Ni Cu Zn Ga Ge As Se Br Kr Rb Sr Y Zr Nb Mo Tc Ru Rh Pd Ag Cd In Sn Sb Te I Xe Cs Ba La Hf Ta W Re Os Ir Pt Au Hg Tl Pb Bi Po At Rn : F. Weigend and R. Ahlrichs, Phys. Chem. Chem. Phys., Balanced basis sets of split valence, triple zeta valence and quadruple zeta valence
            ! quality for H to Rn: Design and assessment of accuracy 7, 3297 (2005).
            !
            -H     0
            S   3   1.00
                 13.0107010              0.19682158E-01
                  1.9622572              0.13796524
                  0.44453796             0.47831935
            S   1   1.00
                  0.12194962             1.0000000
            ****
            -B     0
            S   5   1.00
                839.31830086            -0.55929201074E-02
                126.26464843            -0.41565520771E-01
                 28.620600763           -0.18299816983
                  7.8793722710          -0.46540391866
                  2.4088857172          -0.44173884791
            S   1   1.00
                  0.25105109036          1.0000000
            S   1   1.00
                  0.83648866069E-01            1.0000000
            P   3   1.00
                  6.0332223619          -0.35603672456E-01
                  1.2499157866          -0.19895775769
                  0.33871676350         -0.50850202618
            P   1   1.00
                  0.96415632351E-01            1.0000000
            D   1   1.00
                  0.5000000              1.0000000
            ****
            -C     0
            S   5   1.00
               1238.4016938              0.54568832082E-02
                186.29004992             0.40638409211E-01
                 42.251176346            0.18025593888
                 11.676557932            0.46315121755
                  3.5930506482           0.44087173314
            S   1   1.00
                  0.40245147363          1.0000000
            S   1   1.00
                  0.13090182668          1.0000000
            P   3   1.00
                  9.4680970621           0.38387871728E-01
                  2.0103545142           0.21117025112
                  0.54771004707          0.51328172114
            P   1   1.00
                  0.15268613795          1.0000000
            D   1   1.00
                  0.8000000              1.0000000
            ****
            -N     0
            S   5   1.00
               1712.8415853             -0.53934125305E-02
                257.64812677            -0.40221581118E-01
                 58.458245853           -0.17931144990
                 16.198367905           -0.46376317823
                  5.0052600809          -0.44171422662
            S   1   1.00
                  0.58731856571          1.0000000
            S   1   1.00
                  0.18764592253          1.0000000
            P   3   1.00
                 13.571470233           -0.40072398852E-01
                  2.9257372874          -0.21807045028
                  0.79927750754         -0.51294466049
            P   1   1.00
                  0.21954348034          1.0000000
            D   1   1.00
                  1.0000000              1.0000000
            ****
            -O     0
            S   5   1.00
               2266.1767785             -0.53431809926E-02
                340.87010191            -0.39890039230E-01
                 77.363135167           -0.17853911985
                 21.479644940           -0.46427684959
                  6.6589433124          -0.44309745172
            S   1   1.00
                  0.80975975668          1.0000000
            S   1   1.00
                  0.25530772234          1.0000000
            P   3   1.00
                 17.721504317            0.43394573193E-01
                  3.8635505440           0.23094120765
                  1.0480920883           0.51375311064
            P   1   1.00
                  0.27641544411          1.0000000
            D   1   1.00
                  1.2000000              1.0000000
            ****
            -F     0
            S   5   1.00
               2894.8325990             -0.53408255515E-02
                435.41939120            -0.39904258866E-01
                 98.843328866           -0.17912768038
                 27.485198001           -0.46758090825
                  8.5405498171          -0.44653131020
            S   1   1.00
                  1.0654578038           1.0000000
            S   1   1.00
                  0.33247346748          1.0000000
            P   3   1.00
                 22.696633924           -0.45212874436E-01
                  4.9872339257          -0.23754317067
                  1.3491613954          -0.51287353587
            P   1   1.00
                  0.34829881977          1.0000000
            D   1   1.00
                  1.4000000              1.0000000
            ****
            -S     0
            S   5   1.00
               9184.9303010             -0.22294387756E-02
               1381.5105503             -0.16683029937E-01
                313.87147580            -0.75262436116E-01
                 88.053870623           -0.19376827038
                 27.039914905           -0.17718020803
            S   3   1.00
                 45.648731303           -0.10736062573
                  4.9664522326           0.65066293018
                  2.0116242047           0.59712155354
            S   1   1.00
                  0.35661077013          1.0000000
            S   1   1.00
                  0.13507221477          1.0000000
            P   5   1.00
                261.98233439            -0.92729929822E-02
                 61.306894736           -0.66547669241E-01
                 19.103729887           -0.24828595903
                  6.6567720378          -0.48703847402
                  2.3959635161          -0.39337850312
            P   1   1.00
                  0.61776161679          1.0000000
            P   1   1.00
                  0.16993376871          1.0000000
            D   1   1.00
                  0.5500000              1.0000000
            D   1   1.00
                  2.9940000              1.0000000
            ****
            -Cl     0
            S   5   1.00
              10449.8275660              0.19708362484E-02
               1571.7365221              0.14754727977E-01
                357.12065523             0.66679112875E-01
                100.25185935             0.17228924084
                 30.812727554            0.15883786100
            S   3   1.00
                 51.923789434           -0.10009298909
                  5.7045760975           0.60841752753
                  2.3508376809           0.54352153355
            S   1   1.00
                  0.44605124672          1.0000000
            S   1   1.00
                  0.16848856190          1.0000000
            P   5   1.00
                307.66790569            -0.87801484118E-02
                 72.102015515           -0.63563355471E-01
                 22.532680262           -0.24016428276
                  7.8991765444          -0.47798866557
                  2.8767268321          -0.38515850005
            P   1   1.00
                  0.77459363955          1.0000000
            P   1   1.00
                  0.21037699698          1.0000000
            D   1   1.00
                  0.6500000              1.0000000
            D   1   1.00
                  3.6520000              1.0000000
            ****
            -Al     0
            S   5   1.00
               5887.5727030              0.13483347987E-02
                885.61225996             0.10071576809E-01
                201.13604899             0.45132454056E-01
                 56.284974674            0.11461268043
                 17.229551243            0.10159608943
            S   3   1.00
                 29.340249922            0.69347454208E-01
                  3.0439630420          -0.42528117679
                  1.1285539518          -0.41449832210
            S   1   1.00
                  0.14234175160          1.0000000
            S   1   1.00
                  0.54400192313E-01            1.0000000
            P   5   1.00
                145.11918809             0.63963373134E-02
                 33.717894833            0.44189359965E-01
                 10.369863083            0.15581575993
                  3.5135616036           0.28635286951
                  1.1980050273           0.22921423248
            P   1   1.00
                  0.26583005913          1.0000000
            P   1   1.00
                  0.71003361994E-01            1.0000000
            D   1   1.00
                  0.3000000              1.0000000
            D   1   1.00
                  1.1950000              1.0000000
            ****
            -Ti     0
            S   6   1.00
              42961.5121850              0.39127635355E-02
               6450.9759169              0.29969820489E-01
               1467.7210915              0.14836352707
                414.20997355             0.51347285324
                134.48715840             1.0335365483
                 46.122209796            0.77854233930
            S   3   1.00
                 89.447762543           -0.28385401259
                 10.223346060            1.6772785333
                  4.1353774271           1.2411928456
            S   3   1.00
                  6.7896181452          -0.78399994518E-02
                  1.1106730691           0.25495493019E-01
                  0.47565975578          0.16061172892E-01
            S   1   1.00
                  0.65986956934E-01            1.0000000
            S   1   1.00
                  0.25210342250E-01            1.0000000
            P   5   1.00
                522.03684782             0.19754179642E-01
                122.68649489             0.14460677619
                 38.572903611            0.54669004165
                 13.672169319            1.0531647540
                  5.0118529359           0.69111213363
            P   3   1.00
                  2.4131928282           0.75803437136
                  0.93252270050          1.3036241399
                  0.35429058390          0.53638653300
            P   1   1.00
                  0.1015610              1.0000000
            D   4   1.00
                 23.465125957            0.26536380115E-01
                  6.3332593832           0.13796453963
                  2.0766489946           0.35312644228
                  0.69027361954          0.48647124166
            D   1   1.00
                  0.21088738554          1.0000000
            ****
            -P     0
            S   5   1.00
               8002.4795106              0.57503489302E-02
               1203.6813590              0.43007628959E-01
                273.44227031             0.19363986252
                 76.655541517            0.49651693399
                 23.516927435            0.44983262479
            S   3   1.00
                 39.791683439            0.95188129789E-01
                  4.2770343323          -0.57649840368
                  1.6940256888          -0.54239583865
            S   1   1.00
                  0.27567674644          1.0000000
            S   1   1.00
                  0.10495590099          1.0000000
            P   5   1.00
                219.50755823             0.92100565257E-02
                 51.274155030            0.65409765745E-01
                 15.921595892            0.24033730279
                  5.5069913481           0.46318321788
                  1.9537719426           0.37392563382
            P   1   1.00
                  0.47803397932          1.0000000
            P   1   1.00
                  0.13657952621          1.0000000
            D   1   1.00
                  0.4500000              1.0000000
            D   1   1.00
                   2.5060000              1.0000000
            ****
 Initial command:
 /group/hpc-share/gaussian/2009D/g09/l1.exe "/scratch/gaussian/g_cis-mesno.com-809709.hn1.marqnet.mu.edu/Gau-29005.inp" -scrdir="/scratch/gaussian/g_cis-mesno.com-809709.hn1.marqnet.mu.edu/"
 Entering Link 1 = /group/hpc-share/gaussian/2009D/g09/l1.exe PID=     29009.
  
 Copyright (c) 1988,1990,1992,1993,1995,1998,2003,2009,2013,
            Gaussian, Inc.  All Rights Reserved.
  
 This is part of the Gaussian(R) 09 program.  It is based on
 the Gaussian(R) 03 system (copyright 2003, Gaussian, Inc.),
 the Gaussian(R) 98 system (copyright 1998, Gaussian, Inc.),
 the Gaussian(R) 94 system (copyright 1995, Gaussian, Inc.),
 the Gaussian 92(TM) system (copyright 1992, Gaussian, Inc.),
 the Gaussian 90(TM) system (copyright 1990, Gaussian, Inc.),
 the Gaussian 88(TM) system (copyright 1988, Gaussian, Inc.),
 the Gaussian 86(TM) system (copyright 1986, Carnegie Mellon
 University), and the Gaussian 82(TM) system (copyright 1983,
 Carnegie Mellon University). Gaussian is a federally registered
 trademark of Gaussian, Inc.
  
 This software contains proprietary and confidential information,
 including trade secrets, belonging to Gaussian, Inc.
  
 This software is provided under written license and may be
 used, copied, transmitted, or stored only in accord with that
 written license.
  
 The following legend is applicable only to US Government
 contracts under FAR:
  
                    RESTRICTED RIGHTS LEGEND
  
 Use, reproduction and disclosure by the US Government is
 subject to restrictions as set forth in subparagraphs (a)
 and (c) of the Commercial Computer Software - Restricted
 Rights clause in FAR 52.227-19.
  
 Gaussian, Inc.
 340 Quinnipiac St., Bldg. 40, Wallingford CT 06492
  
  
 ---------------------------------------------------------------
 Warning -- This program may not be used in any manner that
 competes with the business of Gaussian, Inc. or will provide
 assistance to any competitor of Gaussian, Inc.  The licensee
 of this program is prohibited from giving any competitor of
 Gaussian, Inc. access to this program.  By using this program,
 the user acknowledges that Gaussian, Inc. is engaged in the
 business of creating and licensing software in the field of
 computational chemistry and represents and warrants to the
 licensee that it is not a competitor of Gaussian, Inc. and that
 it will not use this program in any manner prohibited above.
 ---------------------------------------------------------------
  

 Cite this work as:
 Gaussian 09, Revision D.01,
 M. J. Frisch, G. W. Trucks, H. B. Schlegel, G. E. Scuseria, 
 M. A. Robb, J. R. Cheeseman, G. Scalmani, V. Barone, B. Mennucci, 
 G. A. Petersson, H. Nakatsuji, M. Caricato, X. Li, H. P. Hratchian, 
 A. F. Izmaylov, J. Bloino, G. Zheng, J. L. Sonnenberg, M. Hada, 
 M. Ehara, K. Toyota, R. Fukuda, J. Hasegawa, M. Ishida, T. Nakajima, 
 Y. Honda, O. Kitao, H. Nakai, T. Vreven, J. A. Montgomery, Jr., 
 J. E. Peralta, F. Ogliaro, M. Bearpark, J. J. Heyd, E. Brothers, 
 K. N. Kudin, V. N. Staroverov, T. Keith, R. Kobayashi, J. Normand, 
 K. Raghavachari, A. Rendell, J. C. Burant, S. S. Iyengar, J. Tomasi, 
 M. Cossi, N. Rega, J. M. Millam, M. Klene, J. E. Knox, J. B. Cross, 
 V. Bakken, C. Adamo, J. Jaramillo, R. Gomperts, R. E. Stratmann, 
 O. Yazyev, A. J. Austin, R. Cammi, C. Pomelli, J. W. Ochterski, 
 R. L. Martin, K. Morokuma, V. G. Zakrzewski, G. A. Voth, 
 P. Salvador, J. J. Dannenberg, S. Dapprich, A. D. Daniels, 
 O. Farkas, J. B. Foresman, J. V. Ortiz, J. Cioslowski, 
 and D. J. Fox, Gaussian, Inc., Wallingford CT, 2013.
 
 ******************************************
 Gaussian 09:  EM64L-G09RevD.01 24-Apr-2013
                17-Sep-2015 
 ******************************************
 %nproc=8
 Will use up to    8 processors via shared memory.
 %chk=cis-mesno.chk
 ------------------
 #P PBE1PBE/gen opt
 ------------------
 1/14=-1,18=20,19=15,26=3,38=1/1,3;
 2/9=110,12=2,17=6,18=5,40=1/2;
 3/5=7,11=2,16=1,25=1,30=1,71=1,74=-13/1,2,3;
 4//1;
 5/5=2,38=5/2;
 6/7=2,8=2,9=2,10=2,28=1/1;
 7//1,2,3,16;
 1/14=-1,18=20,19=15,26=3/3(2);
 2/9=110/2;
 99//99;
 2/9=110/2;
 3/5=7,6=1,11=2,16=1,25=1,30=1,71=1,74=-13,82=7/1,2,3;
 4/5=5,16=3,69=1/1;
 5/5=2,38=5/2;
 7//1,2,3,16;
 1/14=-1,18=20,19=15,26=3/3(-5);
 2/9=110/2;
 6/7=2,8=2,9=2,10=2,19=2,28=1/1;
 99/9=1/99;
 Leave Link    1 at Thu Sep 17 12:30:10 2015, MaxMem=           0 cpu:         0.5
 (Enter /group/hpc-share/gaussian/2009D/g09/l101.exe)
 ---------
 cis-mesno
 ---------
 Symbolic Z-matrix:
 Charge =  0 Multiplicity = 1
 o
 n                    1    no2
 s                    2    sn3      1    sno3
 c                    3    cs4      1    cso4     2    dih4     0
 h                    4    hc5      3    hcs5     1    dih5     0
 h                    4    hc6      3    hcs6     5    dih6     0
 h                    4    hc7      3    hcs7     5    dih7     0
       Variables:
  no2                   1.4                      
  sn3                   1.625                    
  sno3                109.471                    
  cs4                   1.71                     
  cso4                109.471                    
  dih4                180.                       
  hc5                   1.089                    
  hcs5                109.471                    
  dih5                180.                       
  hc6                   1.089                    
  hcs6                109.471                    
  dih6                120.                       
  hc7                   1.089                    
  hcs7                109.471                    
  dih7                240.                       
 
     5 tetrahedral angles replaced.
 NAtoms=      7 NQM=        7 NQMF=       0 NMMI=      0 NMMIF=      0
                NMic=       0 NMicF=      0.
                    Isotopes and Nuclear Properties:
 (Nuclear quadrupole moments (NQMom) in fm**2, nuclear magnetic moments (NMagM)
  in nuclear magnetons)

  Atom         1           2           3           4           5           6           7
 IAtWgt=          16          14          32          12           1           1           1
 AtmWgt=  15.9949146  14.0030740  31.9720718  12.0000000   1.0078250   1.0078250   1.0078250
 NucSpn=           0           2           0           0           1           1           1
 AtZEff=   0.0000000   0.0000000   0.0000000   0.0000000   0.0000000   0.0000000   0.0000000
 NQMom=    0.0000000   2.0440000   0.0000000   0.0000000   0.0000000   0.0000000   0.0000000
 NMagM=    0.0000000   0.4037610   0.0000000   0.0000000   2.7928460   2.7928460   2.7928460
 AtZNuc=   8.0000000   7.0000000  16.0000000   6.0000000   1.0000000   1.0000000   1.0000000
 Leave Link  101 at Thu Sep 17 12:30:10 2015, MaxMem=    33554432 cpu:         1.2
 (Enter /group/hpc-share/gaussian/2009D/g09/l103.exe)

 GradGradGradGradGradGradGradGradGradGradGradGradGradGradGradGradGradGrad
 Berny optimization.
 Initialization pass.
                           ----------------------------
                           !    Initial Parameters    !
                           ! (Angstroms and Degrees)  !
 --------------------------                            --------------------------
 ! Name  Definition              Value          Derivative Info.                !
 --------------------------------------------------------------------------------
 ! R1    R(1,2)                  1.4            estimate D2E/DX2                !
 ! R2    R(2,3)                  1.625          estimate D2E/DX2                !
 ! R3    R(3,4)                  1.71           estimate D2E/DX2                !
 ! R4    R(4,5)                  1.089          estimate D2E/DX2                !
 ! R5    R(4,6)                  1.089          estimate D2E/DX2                !
 ! R6    R(4,7)                  1.089          estimate D2E/DX2                !
 ! A1    A(1,2,3)              109.4712         estimate D2E/DX2                !
 ! A2    A(2,3,4)              141.7249         estimate D2E/DX2                !
 ! A3    A(3,4,5)              109.4712         estimate D2E/DX2                !
 ! A4    A(3,4,6)              109.4712         estimate D2E/DX2                !
 ! A5    A(3,4,7)              109.4712         estimate D2E/DX2                !
 ! A6    A(5,4,6)              109.4712         estimate D2E/DX2                !
 ! A7    A(5,4,7)              109.4712         estimate D2E/DX2                !
 ! A8    A(6,4,7)              109.4712         estimate D2E/DX2                !
 ! D1    D(1,2,3,4)              0.0            estimate D2E/DX2                !
 ! D2    D(2,3,4,5)            180.0            estimate D2E/DX2                !
 ! D3    D(2,3,4,6)            -60.0            estimate D2E/DX2                !
 ! D4    D(2,3,4,7)             60.0            estimate D2E/DX2                !
 --------------------------------------------------------------------------------
 Trust Radius=3.00D-01 FncErr=1.00D-07 GrdErr=1.00D-06
 Number of steps in this run=     28 maximum allowed number of steps=    100.
 GradGradGradGradGradGradGradGradGradGradGradGradGradGradGradGradGradGrad

 Leave Link  103 at Thu Sep 17 12:30:10 2015, MaxMem=    33554432 cpu:         0.1
 (Enter /group/hpc-share/gaussian/2009D/g09/l202.exe)
                          Input orientation:                          
 ---------------------------------------------------------------------
 Center     Atomic      Atomic             Coordinates (Angstroms)
 Number     Number       Type             X           Y           Z
 ---------------------------------------------------------------------
      1          8           0        0.000000    0.000000    0.000000
      2          7           0        0.000000    0.000000    1.400000
      3         16           0        1.532065    0.000000    1.941667
      4          6           0        3.150798    0.000000    1.390484
      5          1           0        3.825365    0.000000    2.245399
      6          1           0        3.328953   -0.889165    0.787518
      7          1           0        3.328953    0.889165    0.787518
 ---------------------------------------------------------------------
                    Distance matrix (angstroms):
                    1          2          3          4          5
     1  O    0.000000
     2  N    1.400000   0.000000
     3  S    2.473316   1.625000   0.000000
     4  C    3.443976   3.150812   1.710000   0.000000
     5  H    4.435678   3.917668   2.313327   1.089000   0.000000
     6  H    3.534505   3.499668   2.313327   1.089000   1.778330
     7  H    3.534505   3.499668   2.313327   1.089000   1.778330
                    6          7
     6  H    0.000000
     7  H    1.778330   0.000000
 Stoichiometry    CH3NOS
 Framework group  CS[SG(CHNOS),X(H2)]
 Deg. of freedom    10
 Full point group                 CS      NOp   2
 Largest Abelian subgroup         CS      NOp   2
 Largest concise Abelian subgroup CS      NOp   2
                         Standard orientation:                         
 ---------------------------------------------------------------------
 Center     Atomic      Atomic             Coordinates (Angstroms)
 Number     Number       Type             X           Y           Z
 ---------------------------------------------------------------------
      1          8           0       -0.910332   -1.656725    0.000000
      2          7           0       -1.312144   -0.315626    0.000000
      3         16           0        0.000000    0.642968    0.000000
      4          6           0        1.708824    0.579565    0.000000
      5          1           0        2.109643    1.592118    0.000000
      6          1           0        2.052540    0.053099    0.889165
      7          1           0        2.052540    0.053099   -0.889165
 ---------------------------------------------------------------------
 Rotational constants (GHZ):     16.7209568      4.1114492      3.3701594
 Leave Link  202 at Thu Sep 17 12:30:11 2015, MaxMem=    33554432 cpu:         0.0
 (Enter /group/hpc-share/gaussian/2009D/g09/l301.exe)
 General basis read from cards:  (5D, 7F)
 Centers:       5      6      7
 S 3 1.00
     Exponent=  1.3010701000D+01 Coefficients=  1.9682158000D-02
     Exponent=  1.9622572000D+00 Coefficients=  1.3796524000D-01
     Exponent=  4.4453796000D-01 Coefficients=  4.7831935000D-01
 S 1 1.00
     Exponent=  1.2194962000D-01 Coefficients=  1.0000000000D+00
 ****
 Centers:       4
 S 5 1.00
     Exponent=  1.2384016938D+03 Coefficients=  5.4568832082D-03
     Exponent=  1.8629004992D+02 Coefficients=  4.0638409211D-02
     Exponent=  4.2251176346D+01 Coefficients=  1.8025593888D-01
     Exponent=  1.1676557932D+01 Coefficients=  4.6315121755D-01
     Exponent=  3.5930506482D+00 Coefficients=  4.4087173314D-01
 S 1 1.00
     Exponent=  4.0245147363D-01 Coefficients=  1.0000000000D+00
 S 1 1.00
     Exponent=  1.3090182668D-01 Coefficients=  1.0000000000D+00
 P 3 1.00
     Exponent=  9.4680970621D+00 Coefficients=  3.8387871728D-02
     Exponent=  2.0103545142D+00 Coefficients=  2.1117025112D-01
     Exponent=  5.4771004707D-01 Coefficients=  5.1328172114D-01
 P 1 1.00
     Exponent=  1.5268613795D-01 Coefficients=  1.0000000000D+00
 D 1 1.00
     Exponent=  8.0000000000D-01 Coefficients=  1.0000000000D+00
 ****
 Centers:       2
 S 5 1.00
     Exponent=  1.7128415853D+03 Coefficients= -5.3934125305D-03
     Exponent=  2.5764812677D+02 Coefficients= -4.0221581118D-02
     Exponent=  5.8458245853D+01 Coefficients= -1.7931144990D-01
     Exponent=  1.6198367905D+01 Coefficients= -4.6376317823D-01
     Exponent=  5.0052600809D+00 Coefficients= -4.4171422662D-01
 S 1 1.00
     Exponent=  5.8731856571D-01 Coefficients=  1.0000000000D+00
 S 1 1.00
     Exponent=  1.8764592253D-01 Coefficients=  1.0000000000D+00
 P 3 1.00
     Exponent=  1.3571470233D+01 Coefficients= -4.0072398852D-02
     Exponent=  2.9257372874D+00 Coefficients= -2.1807045028D-01
     Exponent=  7.9927750754D-01 Coefficients= -5.1294466049D-01
 P 1 1.00
     Exponent=  2.1954348034D-01 Coefficients=  1.0000000000D+00
 D 1 1.00
     Exponent=  1.0000000000D+00 Coefficients=  1.0000000000D+00
 ****
 Centers:       1
 S 5 1.00
     Exponent=  2.2661767785D+03 Coefficients= -5.3431809926D-03
     Exponent=  3.4087010191D+02 Coefficients= -3.9890039230D-02
     Exponent=  7.7363135167D+01 Coefficients= -1.7853911985D-01
     Exponent=  2.1479644940D+01 Coefficients= -4.6427684959D-01
     Exponent=  6.6589433124D+00 Coefficients= -4.4309745172D-01
 S 1 1.00
     Exponent=  8.0975975668D-01 Coefficients=  1.0000000000D+00
 S 1 1.00
     Exponent=  2.5530772234D-01 Coefficients=  1.0000000000D+00
 P 3 1.00
     Exponent=  1.7721504317D+01 Coefficients=  4.3394573193D-02
     Exponent=  3.8635505440D+00 Coefficients=  2.3094120765D-01
     Exponent=  1.0480920883D+00 Coefficients=  5.1375311064D-01
 P 1 1.00
     Exponent=  2.7641544411D-01 Coefficients=  1.0000000000D+00
 D 1 1.00
     Exponent=  1.2000000000D+00 Coefficients=  1.0000000000D+00
 ****
 Centers:       3
 S 5 1.00
     Exponent=  9.1849303010D+03 Coefficients= -2.2294387756D-03
     Exponent=  1.3815105503D+03 Coefficients= -1.6683029937D-02
     Exponent=  3.1387147580D+02 Coefficients= -7.5262436116D-02
     Exponent=  8.8053870623D+01 Coefficients= -1.9376827038D-01
     Exponent=  2.7039914905D+01 Coefficients= -1.7718020803D-01
 S 3 1.00
     Exponent=  4.5648731303D+01 Coefficients= -1.0736062573D-01
     Exponent=  4.9664522326D+00 Coefficients=  6.5066293018D-01
     Exponent=  2.0116242047D+00 Coefficients=  5.9712155354D-01
 S 1 1.00
     Exponent=  3.5661077013D-01 Coefficients=  1.0000000000D+00
 S 1 1.00
     Exponent=  1.3507221477D-01 Coefficients=  1.0000000000D+00
 P 5 1.00
     Exponent=  2.6198233439D+02 Coefficients= -9.2729929822D-03
     Exponent=  6.1306894736D+01 Coefficients= -6.6547669241D-02
     Exponent=  1.9103729887D+01 Coefficients= -2.4828595903D-01
     Exponent=  6.6567720378D+00 Coefficients= -4.8703847402D-01
     Exponent=  2.3959635161D+00 Coefficients= -3.9337850312D-01
 P 1 1.00
     Exponent=  6.1776161679D-01 Coefficients=  1.0000000000D+00
 P 1 1.00
     Exponent=  1.6993376871D-01 Coefficients=  1.0000000000D+00
 D 1 1.00
     Exponent=  5.5000000000D-01 Coefficients=  1.0000000000D+00
 D 1 1.00
     Exponent=  2.9940000000D+00 Coefficients=  1.0000000000D+00
 ****
 Ernie: Thresh=  0.10000D-02 Tol=  0.10000D-05 Strict=F.
 There are    55 symmetry adapted cartesian basis functions of A'  symmetry.
 There are    21 symmetry adapted cartesian basis functions of A"  symmetry.
 There are    50 symmetry adapted basis functions of A'  symmetry.
 There are    21 symmetry adapted basis functions of A"  symmetry.
    71 basis functions,   130 primitive gaussians,    76 cartesian basis functions
    20 alpha electrons       20 beta electrons
       nuclear repulsion energy       156.1950372443 Hartrees.
 IExCor= 1009 DFT=T Ex+Corr=PBE1PBE ExCW=0 ScaHFX=  0.250000
 ScaDFX=  0.750000  0.750000  1.000000  1.000000 ScalE2=  1.000000  1.000000
 IRadAn=      0 IRanWt=     -1 IRanGd=            0 ICorTp=0 IEmpDi=  4
 NAtoms=    7 NActive=    7 NUniq=    6 SFac= 1.36D+00 NAtFMM=   60 NAOKFM=F Big=F
 Integral buffers will be    131072 words long.
 Raffenetti 2 integral format.
 Two-electron integral symmetry is turned on.
 Leave Link  301 at Thu Sep 17 12:30:11 2015, MaxMem=    33554432 cpu:         1.7
 (Enter /group/hpc-share/gaussian/2009D/g09/l302.exe)
 NPDir=0 NMtPBC=     1 NCelOv=     1 NCel=       1 NClECP=     1 NCelD=      1
         NCelK=      1 NCelE2=     1 NClLst=     1 CellRange=     0.0.
 One-electron integrals computed using PRISM.
 One-electron integral symmetry used in STVInt
 NBasis=    71 RedAO= T EigKep=  1.04D-02  NBF=    50    21
 NBsUse=    71 1.00D-06 EigRej= -1.00D+00 NBFU=    50    21
 Precomputing XC quadrature grid using
 IXCGrd= 4 IRadAn=           0 IRanWt=          -1 IRanGd=           0 AccXCQ= 0.00D+00.
 Generated NRdTot=       0 NPtTot=           0 NUsed=           0 NTot=          32
 NSgBfM=    76    76    76    76    76 MxSgAt=     7 MxSgA2=     7.
 Leave Link  302 at Thu Sep 17 12:30:11 2015, MaxMem=    33554432 cpu:         1.3
 (Enter /group/hpc-share/gaussian/2009D/g09/l303.exe)
 DipDrv:  MaxL=1.
 Leave Link  303 at Thu Sep 17 12:30:11 2015, MaxMem=    33554432 cpu:         0.3
 (Enter /group/hpc-share/gaussian/2009D/g09/l401.exe)
 ExpMin= 1.22D-01 ExpMax= 9.18D+03 ExpMxC= 1.38D+03 IAcc=1 IRadAn=         1 AccDes= 0.00D+00
 Harris functional with IExCor= 1009 and IRadAn=       1 diagonalized for initial guess.
 HarFok:  IExCor= 1009 AccDes= 0.00D+00 IRadAn=         1 IDoV= 1 UseB2=F ITyADJ=14
 ICtDFT=  3500011 ScaDFX=  1.000000  1.000000  1.000000  1.000000
 FoFCou: FMM=F IPFlag=           0 FMFlag=      100000 FMFlg1=           0
         NFxFlg=           0 DoJE=T BraDBF=F KetDBF=T FulRan=T
         wScrn=  0.000000 ICntrl=     500 IOpCl=  0 I1Cent=   200000004 NGrid=           0
         NMat0=    1 NMatS0=      1 NMatT0=    0 NMatD0=    1 NMtDS0=    0 NMtDT0=    0
 Petite list used in FoFCou.
 Harris En= -567.328814006174    
 JPrj=0 DoOrth=F DoCkMO=F.
 Initial guess orbital symmetries:
       Occupied  (A') (A') (A') (A') (A') (A') (A') (A") (A') (A')
                 (A') (A') (A') (A") (A') (A') (A") (A') (A") (A')
       Virtual   (A") (A') (A') (A') (A") (A') (A') (A') (A") (A')
                 (A') (A") (A') (A') (A") (A') (A') (A") (A') (A")
                 (A') (A') (A') (A") (A') (A') (A") (A') (A') (A')
                 (A') (A") (A') (A") (A') (A") (A') (A') (A") (A')
                 (A') (A") (A') (A") (A') (A') (A") (A') (A") (A')
                 (A')
 The electronic state of the initial guess is 1-A'.
 Leave Link  401 at Thu Sep 17 12:30:11 2015, MaxMem=    33554432 cpu:         1.4
 (Enter /group/hpc-share/gaussian/2009D/g09/l502.exe)
 Closed shell SCF:
 Using DIIS extrapolation, IDIIS=  1040.
 Integral symmetry usage will be decided dynamically.
 Keep R1 ints in memory in symmetry-blocked form, NReq=4997642.
 IVT=       37168 IEndB=       37168 NGot=    33554432 MDV=    31824708
 LenX=    31824708 LenY=    31818491
 Requested convergence on RMS density matrix=1.00D-08 within 128 cycles.
 Requested convergence on MAX density matrix=1.00D-06.
 Requested convergence on             energy=1.00D-06.
 No special actions if energy rises.
 FoFCou: FMM=F IPFlag=           0 FMFlag=           0 FMFlg1=           0
         NFxFlg=           0 DoJE=F BraDBF=F KetDBF=F FulRan=T
         wScrn=  0.000000 ICntrl=     600 IOpCl=  0 I1Cent=           0 NGrid=           0
         NMat0=    1 NMatS0=   2556 NMatT0=    0 NMatD0=    1 NMtDS0=    0 NMtDT0=    0
 Petite list used in FoFCou.
 Integral accuracy reduced to 1.0D-05 until final iterations.

 Cycle   1  Pass 0  IDiag  1:
 E= -567.124639914297    
 DIIS: error= 4.54D-02 at cycle   1 NSaved=   1.
 NSaved= 1 IEnMin= 1 EnMin= -567.124639914297     IErMin= 1 ErrMin= 4.54D-02
 ErrMax= 4.54D-02  0.00D+00 EMaxC= 1.00D-01 BMatC= 1.94D-01 BMatP= 1.94D-01
 IDIUse=3 WtCom= 5.46D-01 WtEn= 4.54D-01
 Coeff-Com:  0.100D+01
 Coeff-En:   0.100D+01
 Coeff:      0.100D+01
 Gap=     0.037 Goal=   None    Shift=    0.000
 GapD=    0.037 DampG=0.250 DampE=0.500 DampFc=0.2500 IDamp=-1.
 Damping current iteration by 2.50D-01
 RMSDP=3.56D-02 MaxDP=5.07D-01              OVMax= 9.05D-01

 Cycle   2  Pass 0  IDiag  1:
 E= -567.065150410053     Delta-E=        0.059489504243 Rises=F Damp=T
 DIIS: error= 1.86D-02 at cycle   2 NSaved=   2.
 NSaved= 2 IEnMin= 1 EnMin= -567.124639914297     IErMin= 2 ErrMin= 1.86D-02
 ErrMax= 1.86D-02  0.00D+00 EMaxC= 1.00D-01 BMatC= 4.81D-02 BMatP= 1.94D-01
 IDIUse=3 WtCom= 8.14D-01 WtEn= 1.86D-01
 Coeff-Com:  0.222D+00 0.778D+00
 Coeff-En:   0.617D+00 0.383D+00
 Coeff:      0.295D+00 0.705D+00
 Gap=     0.120 Goal=   None    Shift=    0.000
 RMSDP=9.13D-03 MaxDP=1.71D-01 DE= 5.95D-02 OVMax= 3.21D-01

 Cycle   3  Pass 0  IDiag  1:
 E= -567.233242409016     Delta-E=       -0.168091998962 Rises=F Damp=F
 DIIS: error= 2.68D-02 at cycle   3 NSaved=   3.
 NSaved= 3 IEnMin= 3 EnMin= -567.233242409016     IErMin= 2 ErrMin= 1.86D-02
 ErrMax= 2.68D-02  0.00D+00 EMaxC= 1.00D-01 BMatC= 7.68D-02 BMatP= 4.81D-02
 IDIUse=2 WtCom= 0.00D+00 WtEn= 1.00D+00
 EnCoef did     2 forward-backward iterations
 Coeff-En:   0.330D-01 0.672D-01 0.900D+00
 Coeff:      0.330D-01 0.672D-01 0.900D+00
 Gap=     0.078 Goal=   None    Shift=    0.000
 RMSDP=1.28D-02 MaxDP=2.29D-01 DE=-1.68D-01 OVMax= 4.90D-01

 Cycle   4  Pass 0  IDiag  1:
 E= -566.738729043817     Delta-E=        0.494513365199 Rises=F Damp=F
 DIIS: error= 8.01D-02 at cycle   4 NSaved=   4.
 NSaved= 4 IEnMin= 3 EnMin= -567.233242409016     IErMin= 2 ErrMin= 1.86D-02
 ErrMax= 8.01D-02  0.00D+00 EMaxC= 1.00D-01 BMatC= 6.06D-01 BMatP= 4.81D-02
 IDIUse=2 WtCom= 0.00D+00 WtEn= 1.00D+00
 EnCoef did     4 forward-backward iterations
 Coeff-En:   0.667D-01 0.000D+00 0.753D+00 0.180D+00
 Coeff:      0.667D-01 0.000D+00 0.753D+00 0.180D+00
 Gap=     0.108 Goal=   None    Shift=    0.000
 RMSDP=8.41D-03 MaxDP=1.30D-01 DE= 4.95D-01 OVMax= 2.77D-01

 Cycle   5  Pass 0  IDiag  1:
 E= -567.280160550618     Delta-E=       -0.541431506801 Rises=F Damp=F
 DIIS: error= 1.72D-02 at cycle   5 NSaved=   5.
 NSaved= 5 IEnMin= 5 EnMin= -567.280160550618     IErMin= 5 ErrMin= 1.72D-02
 ErrMax= 1.72D-02  0.00D+00 EMaxC= 1.00D-01 BMatC= 3.56D-02 BMatP= 4.81D-02
 IDIUse=3 WtCom= 8.28D-01 WtEn= 1.72D-01
 Coeff-Com: -0.146D-01 0.101D+00 0.354D+00-0.586D-01 0.618D+00
 Coeff-En:   0.000D+00 0.000D+00 0.337D+00 0.000D+00 0.663D+00
 Coeff:     -0.121D-01 0.837D-01 0.351D+00-0.485D-01 0.626D+00
 Gap=     0.149 Goal=   None    Shift=    0.000
 RMSDP=2.64D-03 MaxDP=4.75D-02 DE=-5.41D-01 OVMax= 9.13D-02

 Cycle   6  Pass 0  IDiag  1:
 E= -567.313172431672     Delta-E=       -0.033011881053 Rises=F Damp=F
 DIIS: error= 3.64D-03 at cycle   6 NSaved=   6.
 NSaved= 6 IEnMin= 6 EnMin= -567.313172431672     IErMin= 6 ErrMin= 3.64D-03
 ErrMax= 3.64D-03  0.00D+00 EMaxC= 1.00D-01 BMatC= 7.68D-04 BMatP= 3.56D-02
 IDIUse=3 WtCom= 9.64D-01 WtEn= 3.64D-02
 Coeff-Com: -0.275D-01 0.415D-01 0.115D+00-0.222D-01 0.261D+00 0.632D+00
 Coeff-En:   0.000D+00 0.000D+00 0.000D+00 0.000D+00 0.000D+00 0.100D+01
 Coeff:     -0.265D-01 0.400D-01 0.110D+00-0.213D-01 0.252D+00 0.645D+00
 Gap=     0.149 Goal=   None    Shift=    0.000
 RMSDP=4.76D-04 MaxDP=9.17D-03 DE=-3.30D-02 OVMax= 2.35D-02

 Cycle   7  Pass 0  IDiag  1:
 E= -567.313871837823     Delta-E=       -0.000699406151 Rises=F Damp=F
 DIIS: error= 1.15D-03 at cycle   7 NSaved=   7.
 NSaved= 7 IEnMin= 7 EnMin= -567.313871837823     IErMin= 7 ErrMin= 1.15D-03
 ErrMax= 1.15D-03  0.00D+00 EMaxC= 1.00D-01 BMatC= 1.25D-04 BMatP= 7.68D-04
 IDIUse=3 WtCom= 9.89D-01 WtEn= 1.15D-02
 Coeff-Com: -0.202D-01 0.160D-01 0.121D-01-0.504D-02 0.674D-01 0.516D+00
 Coeff-Com:  0.413D+00
 Coeff-En:   0.000D+00 0.000D+00 0.000D+00 0.000D+00 0.000D+00 0.936D-01
 Coeff-En:   0.906D+00
 Coeff:     -0.200D-01 0.158D-01 0.119D-01-0.498D-02 0.666D-01 0.512D+00
 Coeff:      0.419D+00
 Gap=     0.150 Goal=   None    Shift=    0.000
 RMSDP=1.95D-04 MaxDP=2.66D-03 DE=-6.99D-04 OVMax= 4.93D-03

 Cycle   8  Pass 0  IDiag  1:
 E= -567.313991826907     Delta-E=       -0.000119989085 Rises=F Damp=F
 DIIS: error= 4.26D-04 at cycle   8 NSaved=   8.
 NSaved= 8 IEnMin= 8 EnMin= -567.313991826907     IErMin= 8 ErrMin= 4.26D-04
 ErrMax= 4.26D-04  0.00D+00 EMaxC= 1.00D-01 BMatC= 7.54D-06 BMatP= 1.25D-04
 IDIUse=3 WtCom= 9.96D-01 WtEn= 4.26D-03
 Coeff-Com: -0.219D-02 0.852D-03-0.882D-02 0.365D-03-0.900D-02-0.370D-01
 Coeff-Com:  0.396D-01 0.102D+01
 Coeff-En:   0.000D+00 0.000D+00 0.000D+00 0.000D+00 0.000D+00 0.000D+00
 Coeff-En:   0.000D+00 0.100D+01
 Coeff:     -0.218D-02 0.849D-03-0.878D-02 0.363D-03-0.896D-02-0.368D-01
 Coeff:      0.395D-01 0.102D+01
 Gap=     0.150 Goal=   None    Shift=    0.000
 RMSDP=6.96D-05 MaxDP=1.19D-03 DE=-1.20D-04 OVMax= 3.25D-03

 Cycle   9  Pass 0  IDiag  1:
 E= -567.314003209163     Delta-E=       -0.000011382256 Rises=F Damp=F
 DIIS: error= 4.14D-05 at cycle   9 NSaved=   9.
 NSaved= 9 IEnMin= 9 EnMin= -567.314003209163     IErMin= 9 ErrMin= 4.14D-05
 ErrMax= 4.14D-05  0.00D+00 EMaxC= 1.00D-01 BMatC= 2.14D-07 BMatP= 7.54D-06
 IDIUse=1 WtCom= 1.00D+00 WtEn= 0.00D+00
 Coeff-Com:  0.123D-02-0.776D-03-0.609D-03-0.240D-03-0.235D-02-0.518D-01
 Coeff-Com: -0.355D-01 0.252D+00 0.838D+00
 Coeff:      0.123D-02-0.776D-03-0.609D-03-0.240D-03-0.235D-02-0.518D-01
 Coeff:     -0.355D-01 0.252D+00 0.838D+00
 Gap=     0.150 Goal=   None    Shift=    0.000
 RMSDP=2.04D-05 MaxDP=2.74D-04 DE=-1.14D-05 OVMax= 5.63D-04

 Cycle  10  Pass 0  IDiag  1:
 E= -567.314003389667     Delta-E=       -0.000000180504 Rises=F Damp=F
 DIIS: error= 5.69D-05 at cycle  10 NSaved=  10.
 NSaved=10 IEnMin=10 EnMin= -567.314003389667     IErMin= 9 ErrMin= 4.14D-05
 ErrMax= 5.69D-05  0.00D+00 EMaxC= 1.00D-01 BMatC= 2.70D-07 BMatP= 2.14D-07
 IDIUse=1 WtCom= 1.00D+00 WtEn= 0.00D+00
 Coeff-Com:  0.681D-03-0.742D-03 0.168D-03-0.143D-03-0.275D-03-0.237D-02
 Coeff-Com: -0.679D-02-0.294D-02 0.229D+00 0.783D+00
 Coeff:      0.681D-03-0.742D-03 0.168D-03-0.143D-03-0.275D-03-0.237D-02
 Coeff:     -0.679D-02-0.294D-02 0.229D+00 0.783D+00
 Gap=     0.150 Goal=   None    Shift=    0.000
 RMSDP=5.06D-06 MaxDP=7.48D-05 DE=-1.81D-07 OVMax= 1.51D-04

 Initial convergence to 1.0D-05 achieved.  Increase integral accuracy.
 Cycle  11  Pass 1  IDiag  1:
 E= -567.313940037969     Delta-E=        0.000063351698 Rises=F Damp=F
 DIIS: error= 3.82D-05 at cycle   1 NSaved=   1.
 NSaved= 1 IEnMin= 1 EnMin= -567.313940037969     IErMin= 1 ErrMin= 3.82D-05
 ErrMax= 3.82D-05  0.00D+00 EMaxC= 1.00D-01 BMatC= 1.12D-07 BMatP= 1.12D-07
 IDIUse=1 WtCom= 1.00D+00 WtEn= 0.00D+00
 Coeff-Com:  0.100D+01
 Coeff:      0.100D+01
 Gap=     0.150 Goal=   None    Shift=    0.000
 RMSDP=5.06D-06 MaxDP=7.48D-05 DE= 6.34D-05 OVMax= 7.07D-04

 Cycle  12  Pass 1  IDiag  1:
 E= -567.313939166445     Delta-E=        0.000000871524 Rises=F Damp=F
 DIIS: error= 1.27D-04 at cycle   2 NSaved=   2.
 NSaved= 2 IEnMin= 1 EnMin= -567.313940037969     IErMin= 1 ErrMin= 3.82D-05
 ErrMax= 1.27D-04  0.00D+00 EMaxC= 1.00D-01 BMatC= 1.09D-06 BMatP= 1.12D-07
 IDIUse=3 WtCom= 4.70D-01 WtEn= 5.30D-01
 Coeff-Com:  0.767D+00 0.233D+00
 Coeff-En:   0.842D+00 0.158D+00
 Coeff:      0.807D+00 0.193D+00
 Gap=     0.150 Goal=   None    Shift=    0.000
 RMSDP=1.01D-05 MaxDP=2.42D-04 DE= 8.72D-07 OVMax= 4.60D-04

 Cycle  13  Pass 1  IDiag  1:
 E= -567.313940123880     Delta-E=       -0.000000957435 Rises=F Damp=F
 DIIS: error= 2.03D-05 at cycle   3 NSaved=   3.
 NSaved= 3 IEnMin= 3 EnMin= -567.313940123880     IErMin= 3 ErrMin= 2.03D-05
 ErrMax= 2.03D-05  0.00D+00 EMaxC= 1.00D-01 BMatC= 2.74D-08 BMatP= 1.12D-07
 IDIUse=1 WtCom= 1.00D+00 WtEn= 0.00D+00
 Coeff-Com:  0.856D-01-0.140D+00 0.105D+01
 Coeff:      0.856D-01-0.140D+00 0.105D+01
 Gap=     0.150 Goal=   None    Shift=    0.000
 RMSDP=2.21D-06 MaxDP=4.91D-05 DE=-9.57D-07 OVMax= 9.95D-05

 Cycle  14  Pass 1  IDiag  1:
 E= -567.313940148677     Delta-E=       -0.000000024798 Rises=F Damp=F
 DIIS: error= 2.16D-06 at cycle   4 NSaved=   4.
 NSaved= 4 IEnMin= 4 EnMin= -567.313940148677     IErMin= 4 ErrMin= 2.16D-06
 ErrMax= 2.16D-06  0.00D+00 EMaxC= 1.00D-01 BMatC= 4.91D-10 BMatP= 2.74D-08
 IDIUse=1 WtCom= 1.00D+00 WtEn= 0.00D+00
 Coeff-Com:  0.538D-02-0.726D-01 0.486D+00 0.581D+00
 Coeff:      0.538D-02-0.726D-01 0.486D+00 0.581D+00
 Gap=     0.150 Goal=   None    Shift=    0.000
 RMSDP=4.93D-07 MaxDP=6.81D-06 DE=-2.48D-08 OVMax= 8.77D-06

 Cycle  15  Pass 1  IDiag  1:
 E= -567.313940149038     Delta-E=       -0.000000000361 Rises=F Damp=F
 DIIS: error= 1.46D-06 at cycle   5 NSaved=   5.
 NSaved= 5 IEnMin= 5 EnMin= -567.313940149038     IErMin= 5 ErrMin= 1.46D-06
 ErrMax= 1.46D-06  0.00D+00 EMaxC= 1.00D-01 BMatC= 1.75D-10 BMatP= 4.91D-10
 IDIUse=1 WtCom= 1.00D+00 WtEn= 0.00D+00
 Coeff-Com: -0.886D-02-0.262D-01 0.171D+00 0.381D+00 0.483D+00
 Coeff:     -0.886D-02-0.262D-01 0.171D+00 0.381D+00 0.483D+00
 Gap=     0.150 Goal=   None    Shift=    0.000
 RMSDP=2.24D-07 MaxDP=3.22D-06 DE=-3.61D-10 OVMax= 6.89D-06

 Cycle  16  Pass 1  IDiag  1:
 E= -567.313940149166     Delta-E=       -0.000000000128 Rises=F Damp=F
 DIIS: error= 5.30D-07 at cycle   6 NSaved=   6.
 NSaved= 6 IEnMin= 6 EnMin= -567.313940149166     IErMin= 6 ErrMin= 5.30D-07
 ErrMax= 5.30D-07  0.00D+00 EMaxC= 1.00D-01 BMatC= 3.90D-11 BMatP= 1.75D-10
 IDIUse=1 WtCom= 1.00D+00 WtEn= 0.00D+00
 Coeff-Com: -0.414D-02-0.153D-02 0.229D-01 0.156D+00 0.338D+00 0.489D+00
 Coeff:     -0.414D-02-0.153D-02 0.229D-01 0.156D+00 0.338D+00 0.489D+00
 Gap=     0.150 Goal=   None    Shift=    0.000
 RMSDP=1.01D-07 MaxDP=1.34D-06 DE=-1.28D-10 OVMax= 2.68D-06

 Cycle  17  Pass 1  IDiag  1:
 E= -567.313940149205     Delta-E=       -0.000000000039 Rises=F Damp=F
 DIIS: error= 1.12D-07 at cycle   7 NSaved=   7.
 NSaved= 7 IEnMin= 7 EnMin= -567.313940149205     IErMin= 7 ErrMin= 1.12D-07
 ErrMax= 1.12D-07  0.00D+00 EMaxC= 1.00D-01 BMatC= 1.41D-12 BMatP= 3.90D-11
 IDIUse=1 WtCom= 1.00D+00 WtEn= 0.00D+00
 Coeff-Com: -0.225D-03 0.415D-02-0.181D-01 0.478D-02 0.497D-01 0.134D+00
 Coeff-Com:  0.826D+00
 Coeff:     -0.225D-03 0.415D-02-0.181D-01 0.478D-02 0.497D-01 0.134D+00
 Coeff:      0.826D+00
 Gap=     0.150 Goal=   None    Shift=    0.000
 RMSDP=2.56D-08 MaxDP=3.48D-07 DE=-3.91D-11 OVMax= 7.32D-07

 Cycle  18  Pass 1  IDiag  1:
 E= -567.313940149208     Delta-E=       -0.000000000003 Rises=F Damp=F
 DIIS: error= 1.24D-08 at cycle   8 NSaved=   8.
 NSaved= 8 IEnMin= 8 EnMin= -567.313940149208     IErMin= 8 ErrMin= 1.24D-08
 ErrMax= 1.24D-08  0.00D+00 EMaxC= 1.00D-01 BMatC= 1.97D-14 BMatP= 1.41D-12
 IDIUse=1 WtCom= 1.00D+00 WtEn= 0.00D+00
 Coeff-Com:  0.321D-03 0.489D-03-0.351D-02-0.139D-01-0.307D-01-0.270D-01
 Coeff-Com:  0.565D-01 0.102D+01
 Coeff:      0.321D-03 0.489D-03-0.351D-02-0.139D-01-0.307D-01-0.270D-01
 Coeff:      0.565D-01 0.102D+01
 Gap=     0.150 Goal=   None    Shift=    0.000
 RMSDP=1.01D-08 MaxDP=1.66D-07 DE=-2.96D-12 OVMax= 3.04D-07

 Cycle  19  Pass 1  IDiag  1:
 E= -567.313940149209     Delta-E=       -0.000000000002 Rises=F Damp=F
 DIIS: error= 3.45D-09 at cycle   9 NSaved=   9.
 NSaved= 9 IEnMin= 9 EnMin= -567.313940149209     IErMin= 9 ErrMin= 3.45D-09
 ErrMax= 3.45D-09  0.00D+00 EMaxC= 1.00D-01 BMatC= 1.12D-15 BMatP= 1.97D-14
 IDIUse=1 WtCom= 1.00D+00 WtEn= 0.00D+00
 Coeff-Com:  0.282D-04-0.570D-04 0.196D-03-0.145D-02-0.437D-02-0.658D-02
 Coeff-Com: -0.231D-01 0.875D-01 0.948D+00
 Coeff:      0.282D-04-0.570D-04 0.196D-03-0.145D-02-0.437D-02-0.658D-02
 Coeff:     -0.231D-01 0.875D-01 0.948D+00
 Gap=     0.150 Goal=   None    Shift=    0.000
 RMSDP=1.49D-09 MaxDP=2.57D-08 DE=-1.82D-12 OVMax= 4.71D-08

 SCF Done:  E(RPBE1PBE) =  -567.313940149     A.U. after   19 cycles
            NFock= 19  Conv=0.15D-08     -V/T= 2.0031
 KE= 5.655824412195D+02 PE=-1.655733581578D+03 EE= 3.666421629651D+02
 Leave Link  502 at Thu Sep 17 12:30:12 2015, MaxMem=    33554432 cpu:         7.0
 (Enter /group/hpc-share/gaussian/2009D/g09/l601.exe)
 Copying SCF densities to generalized density rwf, IOpCl= 0 IROHF=0.

 **********************************************************************

            Population analysis using the SCF density.

 **********************************************************************

 Orbital symmetries:
       Occupied  (A') (A') (A') (A') (A') (A') (A') (A") (A') (A')
                 (A') (A') (A') (A") (A') (A') (A") (A') (A") (A')
       Virtual   (A") (A') (A') (A') (A") (A') (A') (A') (A") (A')
                 (A') (A") (A') (A') (A") (A') (A") (A') (A') (A")
                 (A') (A') (A") (A') (A') (A') (A') (A") (A') (A')
                 (A') (A") (A') (A") (A') (A") (A') (A') (A") (A')
                 (A') (A") (A') (A") (A') (A') (A") (A') (A") (A')
                 (A')
 The electronic state is 1-A'.
 Alpha  occ. eigenvalues --  -89.05414 -19.23373 -14.52891 -10.29099  -8.05805
 Alpha  occ. eigenvalues --   -6.00043  -5.99318  -5.99297  -1.06800  -0.88366
 Alpha  occ. eigenvalues --   -0.79342  -0.61750  -0.50444  -0.49960  -0.49410
 Alpha  occ. eigenvalues --   -0.43072  -0.42591  -0.32280  -0.27968  -0.25934
 Alpha virt. eigenvalues --   -0.10925  -0.05208   0.06250   0.09345   0.10664
 Alpha virt. eigenvalues --    0.12791   0.21507   0.34168   0.38885   0.41614
 Alpha virt. eigenvalues --    0.44713   0.55412   0.57368   0.63255   0.63568
 Alpha virt. eigenvalues --    0.65566   0.67129   0.67235   0.68966   0.73478
 Alpha virt. eigenvalues --    0.74627   0.77795   0.82586   0.83990   0.91839
 Alpha virt. eigenvalues --    0.94009   1.00784   1.01331   1.08625   1.12414
 Alpha virt. eigenvalues --    1.31998   1.68294   1.70676   1.95612   2.02793
 Alpha virt. eigenvalues --    2.07435   2.09382   2.13704   2.17793   2.27901
 Alpha virt. eigenvalues --    2.57680   2.66021   2.67432   2.94824   2.97938
 Alpha virt. eigenvalues --    3.52437   4.58328   4.60272   4.69250   4.85137
 Alpha virt. eigenvalues --    4.95807
          Condensed to atoms (all electrons):
               1          2          3          4          5          6
     1  O    8.208296   0.214545  -0.102330  -0.000815   0.000013   0.002115
     2  N    0.214545   6.633829   0.173862   0.005749   0.000817  -0.001474
     3  S   -0.102330   0.173862  15.673624   0.149721  -0.023516  -0.022189
     4  C   -0.000815   0.005749   0.149721   5.176287   0.386824   0.355454
     5  H    0.000013   0.000817  -0.023516   0.386824   0.453558  -0.014862
     6  H    0.002115  -0.001474  -0.022189   0.355454  -0.014862   0.493840
     7  H    0.002115  -0.001474  -0.022189   0.355454  -0.014862  -0.009593
               7
     1  O    0.002115
     2  N   -0.001474
     3  S   -0.022189
     4  C    0.355454
     5  H   -0.014862
     6  H   -0.009593
     7  H    0.493840
 Mulliken charges:
               1
     1  O   -0.323938
     2  N   -0.025854
     3  S    0.173018
     4  C   -0.428674
     5  H    0.212028
     6  H    0.196710
     7  H    0.196710
 Sum of Mulliken charges =   0.00000
 Mulliken charges with hydrogens summed into heavy atoms:
               1
     1  O   -0.323938
     2  N   -0.025854
     3  S    0.173018
     4  C    0.176774
 Electronic spatial extent (au):  <R**2>=            370.3586
 Charge=              0.0000 electrons
 Dipole moment (field-independent basis, Debye):
    X=              3.9441    Y=              2.0392    Z=              0.0000  Tot=              4.4401
 Quadrupole moment (field-independent basis, Debye-Ang):
   XX=            -28.2244   YY=            -34.6629   ZZ=            -29.4567
   XY=              0.1207   XZ=              0.0000   YZ=              0.0000
 Traceless Quadrupole moment (field-independent basis, Debye-Ang):
   XX=              2.5570   YY=             -3.8816   ZZ=              1.3246
   XY=              0.1207   XZ=              0.0000   YZ=              0.0000
 Octapole moment (field-independent basis, Debye-Ang**2):
  XXX=              8.0267  YYY=              3.4607  ZZZ=              0.0000  XYY=              7.4103
  XXY=              4.3647  XXZ=              0.0000  XZZ=              0.4324  YZZ=             -2.8356
  YYZ=              0.0000  XYZ=              0.0000
 Hexadecapole moment (field-independent basis, Debye-Ang**3):
 XXXX=           -251.5438 YYYY=           -184.8362 ZZZZ=            -35.0150 XXXY=            -48.4508
 XXXZ=              0.0000 YYYX=            -54.0199 YYYZ=              0.0000 ZZZX=              0.0000
 ZZZY=              0.0000 XXYY=            -69.6467 XXZZ=            -45.3066 YYZZ=            -35.5316
 XXYZ=              0.0000 YYXZ=              0.0000 ZZXY=            -17.9428
 N-N= 1.561950372443D+02 E-N=-1.655733581494D+03  KE= 5.655824412195D+02
 Symmetry A'   KE= 5.208082167903D+02
 Symmetry A"   KE= 4.477422442914D+01
 No NMR shielding tensors so no spin-rotation constants.
 Leave Link  601 at Thu Sep 17 12:30:13 2015, MaxMem=    33554432 cpu:         2.0
 (Enter /group/hpc-share/gaussian/2009D/g09/l701.exe)
 Compute integral first derivatives.
 ... and contract with generalized density number  0.
 Leave Link  701 at Thu Sep 17 12:30:13 2015, MaxMem=    33554432 cpu:         1.3
 (Enter /group/hpc-share/gaussian/2009D/g09/l702.exe)
 L702 exits ... SP integral derivatives will be done elsewhere.
 Leave Link  702 at Thu Sep 17 12:30:13 2015, MaxMem=    33554432 cpu:         0.1
 (Enter /group/hpc-share/gaussian/2009D/g09/l703.exe)
 Compute integral first derivatives, UseDBF=F ICtDFT=           0.
 Integral derivatives from FoFJK, PRISM(SPDF).
 Calling FoFJK, ICntrl=      2127 FMM=F ISym2X=1 I1Cent= 0 IOpClX= 0 NMat=1 NMatS=1 NMatT=0.
 FoFJK:  IHMeth= 1 ICntrl=    2127 DoSepK=F KAlg= 0 I1Cent=   0 FoldK=F
 IRaf=         0 NMat=   1 IRICut=       1 DoRegI=T DoRafI=F ISym2E= 1.
 FoFCou: FMM=F IPFlag=           0 FMFlag=      100000 FMFlg1=         800
         NFxFlg=           0 DoJE=F BraDBF=F KetDBF=F FulRan=T
         wScrn=  0.000000 ICntrl=    2127 IOpCl=  0 I1Cent=           0 NGrid=           0
         NMat0=    1 NMatS0=      1 NMatT0=    0 NMatD0=    1 NMtDS0=    0 NMtDT0=    0
 Petite list used in FoFCou.
 Leave Link  703 at Thu Sep 17 12:30:14 2015, MaxMem=    33554432 cpu:         2.4
 (Enter /group/hpc-share/gaussian/2009D/g09/l716.exe)
 Dipole        = 1.55173765D+00 8.02299664D-01 0.00000000D+00
 ***** Axes restored to original set *****
 -------------------------------------------------------------------
 Center     Atomic                   Forces (Hartrees/Bohr)
 Number     Number              X              Y              Z
 -------------------------------------------------------------------
      1        8          -0.031779315    0.000000000    0.127827814
      2        7           0.039431497    0.000000000   -0.200241307
      3       16          -0.032634642    0.000000000    0.137932095
      4        6           0.012939671    0.000000000   -0.062289024
      5        1          -0.005594727    0.000000000    0.013798471
      6        1           0.008818758   -0.006870664   -0.008514025
      7        1           0.008818758    0.006870664   -0.008514025
 -------------------------------------------------------------------
 Cartesian Forces:  Max     0.200241307 RMS     0.063153467
 Leave Link  716 at Thu Sep 17 12:30:14 2015, MaxMem=    33554432 cpu:         0.1
 (Enter /group/hpc-share/gaussian/2009D/g09/l103.exe)

 GradGradGradGradGradGradGradGradGradGradGradGradGradGradGradGradGradGrad
 Berny optimization.
 FormGI is forming the generalized inverse of G from B-inverse, IUseBI=4.
 Internal  Forces:  Max     0.133406318 RMS     0.049938923
 Search for a local minimum.
 Step number   1 out of a maximum of   28
 All quantities printed in internal units (Hartrees-Bohrs-Radians)
 RMS Force = .49939D-01 SwitMx=.10000D-02 MixMth= 1
 Mixed Optimization -- RFO/linear search
 Second derivative matrix not updated -- first step.
 The second derivative matrix:
                          R1        R2        R3        R4        R5
           R1           0.45621
           R2           0.00000   0.46672
           R3           0.00000   0.00000   0.34713
           R4           0.00000   0.00000   0.00000   0.34928
           R5           0.00000   0.00000   0.00000   0.00000   0.34928
           R6           0.00000   0.00000   0.00000   0.00000   0.00000
           A1           0.00000   0.00000   0.00000   0.00000   0.00000
           A2           0.00000   0.00000   0.00000   0.00000   0.00000
           A3           0.00000   0.00000   0.00000   0.00000   0.00000
           A4           0.00000   0.00000   0.00000   0.00000   0.00000
           A5           0.00000   0.00000   0.00000   0.00000   0.00000
           A6           0.00000   0.00000   0.00000   0.00000   0.00000
           A7           0.00000   0.00000   0.00000   0.00000   0.00000
           A8           0.00000   0.00000   0.00000   0.00000   0.00000
           D1           0.00000   0.00000   0.00000   0.00000   0.00000
           D2           0.00000   0.00000   0.00000   0.00000   0.00000
           D3           0.00000   0.00000   0.00000   0.00000   0.00000
           D4           0.00000   0.00000   0.00000   0.00000   0.00000
                          R6        A1        A2        A3        A4
           R6           0.34928
           A1           0.00000   0.25000
           A2           0.00000   0.00000   0.25000
           A3           0.00000   0.00000   0.00000   0.16000
           A4           0.00000   0.00000   0.00000   0.00000   0.16000
           A5           0.00000   0.00000   0.00000   0.00000   0.00000
           A6           0.00000   0.00000   0.00000   0.00000   0.00000
           A7           0.00000   0.00000   0.00000   0.00000   0.00000
           A8           0.00000   0.00000   0.00000   0.00000   0.00000
           D1           0.00000   0.00000   0.00000   0.00000   0.00000
           D2           0.00000   0.00000   0.00000   0.00000   0.00000
           D3           0.00000   0.00000   0.00000   0.00000   0.00000
           D4           0.00000   0.00000   0.00000   0.00000   0.00000
                          A5        A6        A7        A8        D1
           A5           0.16000
           A6           0.00000   0.16000
           A7           0.00000   0.00000   0.16000
           A8           0.00000   0.00000   0.00000   0.16000
           D1           0.00000   0.00000   0.00000   0.00000   0.02288
           D2           0.00000   0.00000   0.00000   0.00000   0.00000
           D3           0.00000   0.00000   0.00000   0.00000   0.00000
           D4           0.00000   0.00000   0.00000   0.00000   0.00000
                          D2        D3        D4
           D2           0.01561
           D3           0.00000   0.01561
           D4           0.00000   0.00000   0.01561
 ITU=  0
     Eigenvalues ---    0.01561   0.02288   0.10446   0.10446   0.16000
     Eigenvalues ---    0.16000   0.16000   0.25000   0.25000   0.34713
     Eigenvalues ---    0.34928   0.34928   0.34928   0.45621   0.46672
 RFO step:  Lambda=-1.08088151D-01 EMin= 1.56082885D-02
 Linear search not attempted -- first point.
 Maximum step size (   0.300) exceeded in Quadratic search.
    -- Step size scaled by   0.575
 Iteration  1 RMS(Cart)=  0.07360146 RMS(Int)=  0.00729586
 Iteration  2 RMS(Cart)=  0.01939110 RMS(Int)=  0.00025531
 Iteration  3 RMS(Cart)=  0.00007193 RMS(Int)=  0.00024760
 Iteration  4 RMS(Cart)=  0.00000001 RMS(Int)=  0.00024760
 ITry= 1 IFail=0 DXMaxC= 2.56D-01 DCOld= 1.00D+10 DXMaxT= 3.00D-01 DXLimC= 3.00D+00 Rises=F
 ClnCor:  largest displacement from symmetrization is 3.40D-09 for atom     7.
 Variable       Old X    -DE/DX   Delta X   Delta X   Delta X     New X
                                 (Linear)    (Quad)   (Total)
    R1        2.64562  -0.12783   0.00000  -0.13028  -0.13028   2.51534
    R2        3.07080   0.01692   0.00000   0.01693   0.01693   3.08774
    R3        3.23143   0.04477   0.00000   0.05656   0.05656   3.28799
    R4        2.05791   0.00737   0.00000   0.00926   0.00926   2.06717
    R5        2.05791   0.01177   0.00000   0.01480   0.01480   2.07271
    R6        2.05791   0.01177   0.00000   0.01480   0.01480   2.07271
    A1        1.91063   0.08408   0.00000   0.13503   0.13503   2.04566
    A2        2.47357  -0.13341   0.00000  -0.21425  -0.21425   2.25931
    A3        1.91063  -0.02471   0.00000  -0.05466  -0.05447   1.85616
    A4        1.91063   0.01352   0.00000   0.02984   0.02963   1.94027
    A5        1.91063   0.01352   0.00000   0.02984   0.02963   1.94027
    A6        1.91063   0.00192   0.00000   0.00246   0.00265   1.91328
    A7        1.91063   0.00192   0.00000   0.00246   0.00265   1.91328
    A8        1.91063  -0.00617   0.00000  -0.00994  -0.01047   1.90017
    D1        0.00000   0.00000   0.00000   0.00000   0.00000   0.00000
    D2        3.14159   0.00000   0.00000   0.00000   0.00000   3.14159
    D3       -1.04720  -0.00450   0.00000  -0.01218  -0.01275  -1.05995
    D4        1.04720   0.00450   0.00000   0.01218   0.01275   1.05995
         Item               Value     Threshold  Converged?
 Maximum Force            0.133406     0.000450     NO 
 RMS     Force            0.049939     0.000300     NO 
 Maximum Displacement     0.255728     0.001800     NO 
 RMS     Displacement     0.087181     0.001200     NO 
 Predicted change in Energy=-4.916810D-02
 Lowest energy point so far.  Saving SCF results.
 GradGradGradGradGradGradGradGradGradGradGradGradGradGradGradGradGradGrad

 Leave Link  103 at Thu Sep 17 12:30:14 2015, MaxMem=    33554432 cpu:         0.3
 (Enter /group/hpc-share/gaussian/2009D/g09/l202.exe)
                          Input orientation:                          
 ---------------------------------------------------------------------
 Center     Atomic      Atomic             Coordinates (Angstroms)
 Number     Number       Type             X           Y           Z
 ---------------------------------------------------------------------
      1          8           0        0.065122    0.000000    0.003057
      2          7           0        0.068965    0.000000    1.334113
      3         16           0        1.524284    0.000000    2.076992
      4          6           0        3.119800    0.000000    1.382959
      5          1           0        3.820878    0.000000    2.222667
      6          1           0        3.283542   -0.892231    0.766398
      7          1           0        3.283542    0.892231    0.766398
 ---------------------------------------------------------------------
                    Distance matrix (angstroms):
                    1          2          3          4          5
     1  O    0.000000
     2  N    1.331061   0.000000
     3  S    2.535815   1.633960   0.000000
     4  C    3.351893   3.051226   1.739929   0.000000
     5  H    4.362611   3.855695   2.301210   1.093902   0.000000
     6  H    3.425929   3.384064   2.368274   1.096829   1.790398
     7  H    3.425929   3.384064   2.368274   1.096829   1.790398
                    6          7
     6  H    0.000000
     7  H    1.784461   0.000000
 Stoichiometry    CH3NOS
 Framework group  CS[SG(CHNOS),X(H2)]
 Deg. of freedom    10
 Full point group                 CS      NOp   2
 RotChk:  IX=0 Diff= 9.51D-02
 Largest Abelian subgroup         CS      NOp   2
 Largest concise Abelian subgroup CS      NOp   2
                         Standard orientation:                         
 ---------------------------------------------------------------------
 Center     Atomic      Atomic             Coordinates (Angstroms)
 Number     Number       Type             X           Y           Z
 ---------------------------------------------------------------------
      1          8           0       -0.962413   -1.617118    0.000000
      2          7           0       -1.254119   -0.318414    0.000000
      3         16           0        0.000000    0.728969    0.000000
      4          6           0        1.709767    0.406404    0.000000
      5          1           0        2.206967    1.380782    0.000000
      6          1           0        2.006282   -0.158431    0.892231
      7          1           0        2.006282   -0.158431   -0.892231
 ---------------------------------------------------------------------
 Rotational constants (GHZ):     15.0775510      4.2715114      3.4004027
 Leave Link  202 at Thu Sep 17 12:30:14 2015, MaxMem=    33554432 cpu:         0.0
 (Enter /group/hpc-share/gaussian/2009D/g09/l301.exe)
 Basis read from rwf:  (5D, 7F)
 No pseudopotential information found on rwf file.
 There are    55 symmetry adapted cartesian basis functions of A'  symmetry.
 There are    21 symmetry adapted cartesian basis functions of A"  symmetry.
 There are    50 symmetry adapted basis functions of A'  symmetry.
 There are    21 symmetry adapted basis functions of A"  symmetry.
    71 basis functions,   130 primitive gaussians,    76 cartesian basis functions
    20 alpha electrons       20 beta electrons
       nuclear repulsion energy       156.3073146918 Hartrees.
 IExCor= 1009 DFT=T Ex+Corr=PBE1PBE ExCW=0 ScaHFX=  0.250000
 ScaDFX=  0.750000  0.750000  1.000000  1.000000 ScalE2=  1.000000  1.000000
 IRadAn=      0 IRanWt=     -1 IRanGd=            0 ICorTp=0 IEmpDi=  4
 NAtoms=    7 NActive=    7 NUniq=    6 SFac= 1.36D+00 NAtFMM=   60 NAOKFM=F Big=F
 Integral buffers will be    131072 words long.
 Raffenetti 2 integral format.
 Two-electron integral symmetry is turned on.
 No density basis found on file   724.
 Leave Link  301 at Thu Sep 17 12:30:14 2015, MaxMem=    33554432 cpu:         0.4
 (Enter /group/hpc-share/gaussian/2009D/g09/l302.exe)
 NPDir=0 NMtPBC=     1 NCelOv=     1 NCel=       1 NClECP=     1 NCelD=      1
         NCelK=      1 NCelE2=     1 NClLst=     1 CellRange=     0.0.
 One-electron integrals computed using PRISM.
 One-electron integral symmetry used in STVInt
 NBasis=    71 RedAO= T EigKep=  1.05D-02  NBF=    50    21
 NBsUse=    71 1.00D-06 EigRej= -1.00D+00 NBFU=    50    21
 Precomputing XC quadrature grid using
 IXCGrd= 4 IRadAn=           0 IRanWt=          -1 IRanGd=           0 AccXCQ= 0.00D+00.
 Generated NRdTot=       0 NPtTot=           0 NUsed=           0 NTot=          32
 NSgBfM=    76    76    76    76    76 MxSgAt=     7 MxSgA2=     7.
 Leave Link  302 at Thu Sep 17 12:30:14 2015, MaxMem=    33554432 cpu:         1.5
 (Enter /group/hpc-share/gaussian/2009D/g09/l303.exe)
 DipDrv:  MaxL=1.
 Leave Link  303 at Thu Sep 17 12:30:14 2015, MaxMem=    33554432 cpu:         0.2
 (Enter /group/hpc-share/gaussian/2009D/g09/l401.exe)
 Initial guess from the checkpoint file:  "cis-mesno.chk"
 B after Tr=     0.000000    0.000000    0.000000
         Rot=    0.999694    0.000000    0.000000    0.024727 Ang=   2.83 deg.
 Guess basis will be translated and rotated to current coordinates.
 JPrj=2 DoOrth=T DoCkMO=T.
 Initial guess orbital symmetries:
       Occupied  (A') (A') (A') (A') (A') (A') (A') (A") (A') (A')
                 (A') (A') (A') (A") (A') (A') (A") (A') (A") (A')
       Virtual   (A') (A') (A') (A') (A') (A') (A') (A') (A') (A')
                 (A') (A') (A') (A') (A') (A') (A') (A') (A') (A')
                 (A') (A') (A') (A') (A') (A') (A') (A') (A') (A')
                 (A') (A') (A') (A') (A") (A") (A") (A") (A") (A")
                 (A") (A") (A") (A") (A") (A") (A") (A") (A") (A")
                 (A")
 The electronic state of the initial guess is 1-A'.
 Generating alternative initial guess.
 ExpMin= 1.22D-01 ExpMax= 9.18D+03 ExpMxC= 1.38D+03 IAcc=1 IRadAn=         1 AccDes= 0.00D+00
 Harris functional with IExCor= 1009 and IRadAn=       1 diagonalized for initial guess.
 HarFok:  IExCor= 1009 AccDes= 0.00D+00 IRadAn=         1 IDoV= 1 UseB2=F ITyADJ=14
 ICtDFT=  3500011 ScaDFX=  1.000000  1.000000  1.000000  1.000000
 FoFCou: FMM=F IPFlag=           0 FMFlag=      100000 FMFlg1=           0
         NFxFlg=           0 DoJE=T BraDBF=F KetDBF=T FulRan=T
         wScrn=  0.000000 ICntrl=     500 IOpCl=  0 I1Cent=   200000004 NGrid=           0
         NMat0=    1 NMatS0=      1 NMatT0=    0 NMatD0=    1 NMtDS0=    0 NMtDT0=    0
 Petite list used in FoFCou.
 Harris En= -567.367515833680    
 Leave Link  401 at Thu Sep 17 12:30:15 2015, MaxMem=    33554432 cpu:         1.7
 (Enter /group/hpc-share/gaussian/2009D/g09/l502.exe)
 Closed shell SCF:
 Using DIIS extrapolation, IDIIS=  1040.
 Integral symmetry usage will be decided dynamically.
 Keep R1 ints in memory in symmetry-blocked form, NReq=4997642.
 IVT=       37168 IEndB=       37168 NGot=    33554432 MDV=    31824708
 LenX=    31824708 LenY=    31818491
 Requested convergence on RMS density matrix=1.00D-08 within 128 cycles.
 Requested convergence on MAX density matrix=1.00D-06.
 Requested convergence on             energy=1.00D-06.
 No special actions if energy rises.
 FoFCou: FMM=F IPFlag=           0 FMFlag=           0 FMFlg1=           0
         NFxFlg=           0 DoJE=F BraDBF=F KetDBF=F FulRan=T
         wScrn=  0.000000 ICntrl=     600 IOpCl=  0 I1Cent=           0 NGrid=           0
         NMat0=    1 NMatS0=   2556 NMatT0=    0 NMatD0=    1 NMtDS0=    0 NMtDT0=    0
 Petite list used in FoFCou.
 Integral accuracy reduced to 1.0D-05 until final iterations.

 Cycle   1  Pass 0  IDiag  1:
 E= -567.354539266047    
 DIIS: error= 7.79D-03 at cycle   1 NSaved=   1.
 NSaved= 1 IEnMin= 1 EnMin= -567.354539266047     IErMin= 1 ErrMin= 7.79D-03
 ErrMax= 7.79D-03  0.00D+00 EMaxC= 1.00D-01 BMatC= 8.19D-03 BMatP= 8.19D-03
 IDIUse=3 WtCom= 9.22D-01 WtEn= 7.79D-02
 Coeff-Com:  0.100D+01
 Coeff-En:   0.100D+01
 Coeff:      0.100D+01
 Gap=     0.518 Goal=   None    Shift=    0.000
 GapD=    0.518 DampG=2.000 DampE=1.000 DampFc=2.0000 IDamp=-1.
 RMSDP=2.45D-03 MaxDP=3.10D-02              OVMax= 3.10D-02

 Cycle   2  Pass 0  IDiag  1:
 E= -567.365912102684     Delta-E=       -0.011372836637 Rises=F Damp=F
 DIIS: error= 1.62D-03 at cycle   2 NSaved=   2.
 NSaved= 2 IEnMin= 2 EnMin= -567.365912102684     IErMin= 2 ErrMin= 1.62D-03
 ErrMax= 1.62D-03  0.00D+00 EMaxC= 1.00D-01 BMatC= 3.09D-04 BMatP= 8.19D-03
 IDIUse=3 WtCom= 9.84D-01 WtEn= 1.62D-02
 Coeff-Com:  0.111D-01 0.989D+00
 Coeff-En:   0.000D+00 0.100D+01
 Coeff:      0.110D-01 0.989D+00
 Gap=     0.159 Goal=   None    Shift=    0.000
 RMSDP=5.23D-04 MaxDP=1.05D-02 DE=-1.14D-02 OVMax= 1.20D-02

 Cycle   3  Pass 0  IDiag  1:
 E= -567.365413235165     Delta-E=        0.000498867520 Rises=F Damp=F
 DIIS: error= 4.21D-03 at cycle   3 NSaved=   3.
 NSaved= 3 IEnMin= 2 EnMin= -567.365912102684     IErMin= 2 ErrMin= 1.62D-03
 ErrMax= 4.21D-03  0.00D+00 EMaxC= 1.00D-01 BMatC= 1.09D-03 BMatP= 3.09D-04
 IDIUse=3 WtCom= 1.34D-01 WtEn= 8.66D-01
 Coeff-Com: -0.301D-01 0.685D+00 0.345D+00
 Coeff-En:   0.000D+00 0.708D+00 0.292D+00
 Coeff:     -0.402D-02 0.705D+00 0.299D+00
 Gap=     0.162 Goal=   None    Shift=    0.000
 RMSDP=3.39D-04 MaxDP=8.42D-03 DE= 4.99D-04 OVMax= 1.10D-02

 Cycle   4  Pass 0  IDiag  1:
 E= -567.366225690568     Delta-E=       -0.000812455403 Rises=F Damp=F
 DIIS: error= 7.40D-04 at cycle   4 NSaved=   4.
 NSaved= 4 IEnMin= 4 EnMin= -567.366225690568     IErMin= 4 ErrMin= 7.40D-04
 ErrMax= 7.40D-04  0.00D+00 EMaxC= 1.00D-01 BMatC= 3.69D-05 BMatP= 3.09D-04
 IDIUse=3 WtCom= 9.93D-01 WtEn= 7.40D-03
 Coeff-Com: -0.184D-01 0.285D+00 0.181D+00 0.552D+00
 Coeff-En:   0.000D+00 0.000D+00 0.000D+00 0.100D+01
 Coeff:     -0.183D-01 0.283D+00 0.180D+00 0.556D+00
 Gap=     0.162 Goal=   None    Shift=    0.000
 RMSDP=1.35D-04 MaxDP=2.70D-03 DE=-8.12D-04 OVMax= 4.85D-03

 Cycle   5  Pass 0  IDiag  1:
 E= -567.366255986289     Delta-E=       -0.000030295721 Rises=F Damp=F
 DIIS: error= 2.59D-04 at cycle   5 NSaved=   5.
 NSaved= 5 IEnMin= 5 EnMin= -567.366255986289     IErMin= 5 ErrMin= 2.59D-04
 ErrMax= 2.59D-04  0.00D+00 EMaxC= 1.00D-01 BMatC= 9.15D-06 BMatP= 3.69D-05
 IDIUse=3 WtCom= 9.97D-01 WtEn= 2.59D-03
 Coeff-Com: -0.900D-02 0.853D-01 0.640D-01 0.342D+00 0.517D+00
 Coeff-En:   0.000D+00 0.000D+00 0.000D+00 0.200D+00 0.800D+00
 Coeff:     -0.897D-02 0.851D-01 0.638D-01 0.342D+00 0.518D+00
 Gap=     0.162 Goal=   None    Shift=    0.000
 RMSDP=6.07D-05 MaxDP=8.53D-04 DE=-3.03D-05 OVMax= 2.04D-03

 Cycle   6  Pass 0  IDiag  1:
 E= -567.366263517052     Delta-E=       -0.000007530763 Rises=F Damp=F
 DIIS: error= 1.29D-04 at cycle   6 NSaved=   6.
 NSaved= 6 IEnMin= 6 EnMin= -567.366263517052     IErMin= 6 ErrMin= 1.29D-04
 ErrMax= 1.29D-04  0.00D+00 EMaxC= 1.00D-01 BMatC= 1.86D-06 BMatP= 9.15D-06
 IDIUse=3 WtCom= 9.99D-01 WtEn= 1.29D-03
 Coeff-Com: -0.141D-02-0.172D-02 0.502D-02 0.126D+00 0.343D+00 0.529D+00
 Coeff-En:   0.000D+00 0.000D+00 0.000D+00 0.000D+00 0.190D+00 0.810D+00
 Coeff:     -0.141D-02-0.171D-02 0.501D-02 0.125D+00 0.343D+00 0.529D+00
 Gap=     0.162 Goal=   None    Shift=    0.000
 RMSDP=2.80D-05 MaxDP=3.64D-04 DE=-7.53D-06 OVMax= 9.20D-04

 Cycle   7  Pass 0  IDiag  1:
 E= -567.366265376317     Delta-E=       -0.000001859265 Rises=F Damp=F
 DIIS: error= 4.39D-05 at cycle   7 NSaved=   7.
 NSaved= 7 IEnMin= 7 EnMin= -567.366265376317     IErMin= 7 ErrMin= 4.39D-05
 ErrMax= 4.39D-05  0.00D+00 EMaxC= 1.00D-01 BMatC= 1.99D-07 BMatP= 1.86D-06
 IDIUse=1 WtCom= 1.00D+00 WtEn= 0.00D+00
 Coeff-Com:  0.151D-03-0.895D-02-0.628D-02 0.275D-01 0.972D-01 0.301D+00
 Coeff-Com:  0.589D+00
 Coeff:      0.151D-03-0.895D-02-0.628D-02 0.275D-01 0.972D-01 0.301D+00
 Coeff:      0.589D+00
 Gap=     0.162 Goal=   None    Shift=    0.000
 RMSDP=6.65D-06 MaxDP=9.18D-05 DE=-1.86D-06 OVMax= 1.52D-04

 Initial convergence to 1.0D-05 achieved.  Increase integral accuracy.
 Cycle   8  Pass 1  IDiag  1:
 E= -567.366209521859     Delta-E=        0.000055854458 Rises=F Damp=F
 DIIS: error= 1.34D-05 at cycle   1 NSaved=   1.
 NSaved= 1 IEnMin= 1 EnMin= -567.366209521859     IErMin= 1 ErrMin= 1.34D-05
 ErrMax= 1.34D-05  0.00D+00 EMaxC= 1.00D-01 BMatC= 2.24D-08 BMatP= 2.24D-08
 IDIUse=1 WtCom= 1.00D+00 WtEn= 0.00D+00
 Coeff-Com:  0.100D+01
 Coeff:      0.100D+01
 Gap=     0.162 Goal=   None    Shift=    0.000
 RMSDP=6.65D-06 MaxDP=9.18D-05 DE= 5.59D-05 OVMax= 1.64D-04

 Cycle   9  Pass 1  IDiag  1:
 E= -567.366209510952     Delta-E=        0.000000010907 Rises=F Damp=F
 DIIS: error= 2.22D-05 at cycle   2 NSaved=   2.
 NSaved= 2 IEnMin= 1 EnMin= -567.366209521859     IErMin= 1 ErrMin= 1.34D-05
 ErrMax= 2.22D-05  0.00D+00 EMaxC= 1.00D-01 BMatC= 3.53D-08 BMatP= 2.24D-08
 IDIUse=1 WtCom= 1.00D+00 WtEn= 0.00D+00
 Coeff-Com:  0.582D+00 0.418D+00
 Coeff:      0.582D+00 0.418D+00
 Gap=     0.162 Goal=   None    Shift=    0.000
 RMSDP=3.99D-06 MaxDP=8.46D-05 DE= 1.09D-08 OVMax= 1.70D-04

 Cycle  10  Pass 1  IDiag  1:
 E= -567.366209530251     Delta-E=       -0.000000019299 Rises=F Damp=F
 DIIS: error= 1.48D-05 at cycle   3 NSaved=   3.
 NSaved= 3 IEnMin= 3 EnMin= -567.366209530251     IErMin= 1 ErrMin= 1.34D-05
 ErrMax= 1.48D-05  0.00D+00 EMaxC= 1.00D-01 BMatC= 1.54D-08 BMatP= 2.24D-08
 IDIUse=1 WtCom= 1.00D+00 WtEn= 0.00D+00
 Coeff-Com:  0.470D-01 0.385D+00 0.568D+00
 Coeff:      0.470D-01 0.385D+00 0.568D+00
 Gap=     0.162 Goal=   None    Shift=    0.000
 RMSDP=1.65D-06 MaxDP=3.38D-05 DE=-1.93D-08 OVMax= 6.31D-05

 Cycle  11  Pass 1  IDiag  1:
 E= -567.366209543902     Delta-E=       -0.000000013651 Rises=F Damp=F
 DIIS: error= 3.21D-06 at cycle   4 NSaved=   4.
 NSaved= 4 IEnMin= 4 EnMin= -567.366209543902     IErMin= 4 ErrMin= 3.21D-06
 ErrMax= 3.21D-06  0.00D+00 EMaxC= 1.00D-01 BMatC= 6.87D-10 BMatP= 1.54D-08
 IDIUse=1 WtCom= 1.00D+00 WtEn= 0.00D+00
 Coeff-Com: -0.179D-02 0.192D+00 0.320D+00 0.490D+00
 Coeff:     -0.179D-02 0.192D+00 0.320D+00 0.490D+00
 Gap=     0.162 Goal=   None    Shift=    0.000
 RMSDP=4.32D-07 MaxDP=8.00D-06 DE=-1.37D-08 OVMax= 1.29D-05

 Cycle  12  Pass 1  IDiag  1:
 E= -567.366209544381     Delta-E=       -0.000000000480 Rises=F Damp=F
 DIIS: error= 1.25D-06 at cycle   5 NSaved=   5.
 NSaved= 5 IEnMin= 5 EnMin= -567.366209544381     IErMin= 5 ErrMin= 1.25D-06
 ErrMax= 1.25D-06  0.00D+00 EMaxC= 1.00D-01 BMatC= 1.54D-10 BMatP= 6.87D-10
 IDIUse=1 WtCom= 1.00D+00 WtEn= 0.00D+00
 Coeff-Com: -0.864D-02 0.867D-01 0.155D+00 0.343D+00 0.423D+00
 Coeff:     -0.864D-02 0.867D-01 0.155D+00 0.343D+00 0.423D+00
 Gap=     0.162 Goal=   None    Shift=    0.000
 RMSDP=1.77D-07 MaxDP=2.76D-06 DE=-4.80D-10 OVMax= 4.03D-06

 Cycle  13  Pass 1  IDiag  1:
 E= -567.366209544527     Delta-E=       -0.000000000146 Rises=F Damp=F
 DIIS: error= 1.42D-07 at cycle   6 NSaved=   6.
 NSaved= 6 IEnMin= 6 EnMin= -567.366209544527     IErMin= 6 ErrMin= 1.42D-07
 ErrMax= 1.42D-07  0.00D+00 EMaxC= 1.00D-01 BMatC= 1.95D-12 BMatP= 1.54D-10
 IDIUse=1 WtCom= 1.00D+00 WtEn= 0.00D+00
 Coeff-Com: -0.264D-02 0.152D-01 0.233D-01 0.762D-01 0.129D+00 0.759D+00
 Coeff:     -0.264D-02 0.152D-01 0.233D-01 0.762D-01 0.129D+00 0.759D+00
 Gap=     0.162 Goal=   None    Shift=    0.000
 RMSDP=2.61D-08 MaxDP=4.43D-07 DE=-1.46D-10 OVMax= 5.85D-07

 Cycle  14  Pass 1  IDiag  1:
 E= -567.366209544529     Delta-E=       -0.000000000003 Rises=F Damp=F
 DIIS: error= 5.30D-08 at cycle   7 NSaved=   7.
 NSaved= 7 IEnMin= 7 EnMin= -567.366209544529     IErMin= 7 ErrMin= 5.30D-08
 ErrMax= 5.30D-08  0.00D+00 EMaxC= 1.00D-01 BMatC= 2.71D-13 BMatP= 1.95D-12
 IDIUse=1 WtCom= 1.00D+00 WtEn= 0.00D+00
 Coeff-Com: -0.490D-03 0.825D-03-0.103D-02 0.106D-01 0.245D-01 0.368D+00
 Coeff-Com:  0.598D+00
 Coeff:     -0.490D-03 0.825D-03-0.103D-02 0.106D-01 0.245D-01 0.368D+00
 Coeff:      0.598D+00
 Gap=     0.162 Goal=   None    Shift=    0.000
 RMSDP=9.19D-09 MaxDP=1.63D-07 DE=-2.50D-12 OVMax= 1.80D-07

 SCF Done:  E(RPBE1PBE) =  -567.366209545     A.U. after   14 cycles
            NFock= 14  Conv=0.92D-08     -V/T= 2.0032
 KE= 5.655371130587D+02 PE=-1.655919493796D+03 EE= 3.667088565011D+02
 Leave Link  502 at Thu Sep 17 12:30:15 2015, MaxMem=    33554432 cpu:         5.2
 (Enter /group/hpc-share/gaussian/2009D/g09/l701.exe)
 Compute integral first derivatives.
 ... and contract with generalized density number  0.
 Leave Link  701 at Thu Sep 17 12:30:16 2015, MaxMem=    33554432 cpu:         1.3
 (Enter /group/hpc-share/gaussian/2009D/g09/l702.exe)
 L702 exits ... SP integral derivatives will be done elsewhere.
 Leave Link  702 at Thu Sep 17 12:30:16 2015, MaxMem=    33554432 cpu:         0.1
 (Enter /group/hpc-share/gaussian/2009D/g09/l703.exe)
 Compute integral first derivatives, UseDBF=F ICtDFT=           0.
 Integral derivatives from FoFJK, PRISM(SPDF).
 Calling FoFJK, ICntrl=      2127 FMM=F ISym2X=1 I1Cent= 0 IOpClX= 0 NMat=1 NMatS=1 NMatT=0.
 FoFJK:  IHMeth= 1 ICntrl=    2127 DoSepK=F KAlg= 0 I1Cent=   0 FoldK=F
 IRaf=         0 NMat=   1 IRICut=       1 DoRegI=T DoRafI=F ISym2E= 1.
 FoFCou: FMM=F IPFlag=           0 FMFlag=      100000 FMFlg1=         800
         NFxFlg=           0 DoJE=F BraDBF=F KetDBF=F FulRan=T
         wScrn=  0.000000 ICntrl=    2127 IOpCl=  0 I1Cent=           0 NGrid=           0
         NMat0=    1 NMatS0=      1 NMatT0=    0 NMatD0=    1 NMtDS0=    0 NMtDT0=    0
 Petite list used in FoFCou.
 Leave Link  703 at Thu Sep 17 12:30:16 2015, MaxMem=    33554432 cpu:         2.4
 (Enter /group/hpc-share/gaussian/2009D/g09/l716.exe)
 Dipole        = 1.43797550D+00 6.84839993D-01 0.00000000D+00
 ***** Axes restored to original set *****
 -------------------------------------------------------------------
 Center     Atomic                   Forces (Hartrees/Bohr)
 Number     Number              X              Y              Z
 -------------------------------------------------------------------
      1        8          -0.012383378    0.000000000    0.120494572
      2        7           0.019994649    0.000000000   -0.160038180
      3       16          -0.017754853    0.000000000    0.078739617
      4        6           0.004182646    0.000000000   -0.039673927
      5        1          -0.001102017    0.000000000    0.007263494
      6        1           0.003531477   -0.003464323   -0.003392788
      7        1           0.003531477    0.003464323   -0.003392788
 -------------------------------------------------------------------
 Cartesian Forces:  Max     0.160038180 RMS     0.048263618
 Leave Link  716 at Thu Sep 17 12:30:16 2015, MaxMem=    33554432 cpu:         0.1
 (Enter /group/hpc-share/gaussian/2009D/g09/l103.exe)

 GradGradGradGradGradGradGradGradGradGradGradGradGradGradGradGradGradGrad
 Berny optimization.
 Using GEDIIS/GDIIS optimizer.
 FormGI is forming the generalized inverse of G from B-inverse, IUseBI=4.
 Internal  Forces:  Max     0.120460564 RMS     0.036656732
 Search for a local minimum.
 Step number   2 out of a maximum of   28
 All quantities printed in internal units (Hartrees-Bohrs-Radians)
 RMS Force = .36657D-01 SwitMx=.10000D-02 MixMth= 1
 Mixed Optimization -- RFO/linear search
 Update second derivatives using D2CorX and points    1    2
 DE= -5.23D-02 DEPred=-4.92D-02 R= 1.06D+00
 TightC=F SS=  1.41D+00  RLast= 3.00D-01 DXNew= 5.0454D-01 9.0145D-01
 Trust test= 1.06D+00 RLast= 3.00D-01 DXMaxT set to 5.05D-01
 The second derivative matrix:
                          R1        R2        R3        R4        R5
           R1           0.32290
           R2           0.01603   0.46591
           R3           0.03783  -0.00047   0.35135
           R4           0.00651  -0.00029  -0.00004   0.34918
           R5           0.00949   0.00024   0.00235   0.00015   0.35031
           R6           0.00949   0.00024   0.00235   0.00015   0.00103
           A1           0.05863   0.00417   0.02451   0.00210   0.00971
           A2          -0.10609   0.00353  -0.00374   0.00110  -0.00387
           A3          -0.01489  -0.00127  -0.00700  -0.00063  -0.00273
[...]
 (Enter /group/hpc-share/gaussian/2009D/g09/l703.exe)
 Compute integral first derivatives, UseDBF=F ICtDFT=           0.
 Integral derivatives from FoFJK, PRISM(SPDF).
 Calling FoFJK, ICntrl=      2127 FMM=F ISym2X=1 I1Cent= 0 IOpClX= 0 NMat=1 NMatS=1 NMatT=0.
 FoFJK:  IHMeth= 1 ICntrl=    2127 DoSepK=F KAlg= 0 I1Cent=   0 FoldK=F
 IRaf=         0 NMat=   1 IRICut=       1 DoRegI=T DoRafI=F ISym2E= 1.
 FoFCou: FMM=F IPFlag=           0 FMFlag=      100000 FMFlg1=         800
         NFxFlg=           0 DoJE=F BraDBF=F KetDBF=F FulRan=T
         wScrn=  0.000000 ICntrl=    2127 IOpCl=  0 I1Cent=           0 NGrid=           0
         NMat0=    1 NMatS0=      1 NMatT0=    0 NMatD0=    1 NMtDS0=    0 NMtDT0=    0
 Petite list used in FoFCou.
 Leave Link  703 at Thu Sep 17 12:30:33 2015, MaxMem=    33554432 cpu:         2.4
 (Enter /group/hpc-share/gaussian/2009D/g09/l716.exe)
 Dipole        = 8.89170307D-01 1.96000348D-01-2.22044605D-16
 ***** Axes restored to original set *****
 -------------------------------------------------------------------
 Center     Atomic                   Forces (Hartrees/Bohr)
 Number     Number              X              Y              Z
 -------------------------------------------------------------------
      1        8           0.000050014    0.000000000    0.000013117
      2        7          -0.000033317    0.000000000    0.000038627
      3       16          -0.000006960    0.000000000   -0.000045023
      4        6          -0.000052574    0.000000000   -0.000037766
      5        1           0.000011516    0.000000000    0.000010664
      6        1           0.000015660   -0.000008015    0.000010191
      7        1           0.000015660    0.000008015    0.000010191
 -------------------------------------------------------------------
 Cartesian Forces:  Max     0.000052574 RMS     0.000024509
 Leave Link  716 at Thu Sep 17 12:30:33 2015, MaxMem=    33554432 cpu:         0.1
 (Enter /group/hpc-share/gaussian/2009D/g09/l103.exe)

 GradGradGradGradGradGradGradGradGradGradGradGradGradGradGradGradGradGrad
 Berny optimization.
 Using GEDIIS/GDIIS optimizer.
 FormGI is forming the generalized inverse of G from B-inverse, IUseBI=4.
 Internal  Forces:  Max     0.000113640 RMS     0.000031036
 Search for a local minimum.
 Step number  10 out of a maximum of   28
 All quantities printed in internal units (Hartrees-Bohrs-Radians)
 RMS Force = .31036D-04 SwitMx=.10000D-02 MixMth= 2
 Mixed Optimization -- En-DIIS/RFO-DIIS
 Swapping is turned off.
 Update second derivatives using D2CorX and points    3    4    5    6    7
                                                      8    9   10
 DE= -7.84D-07 DEPred=-7.64D-07 R= 1.03D+00
 Trust test= 1.03D+00 RLast= 3.08D-03 DXMaxT set to 8.49D-01
 The second derivative matrix:
                          R1        R2        R3        R4        R5
           R1           1.09247
           R2           0.16571   0.14097
           R3           0.00031   0.03895   0.34960
           R4          -0.01452  -0.00430   0.00266   0.34557
           R5          -0.00352  -0.00270   0.00460  -0.00122   0.35047
           R6          -0.00352  -0.00270   0.00460  -0.00122   0.00119
           A1           0.05467   0.07338   0.00059   0.00168   0.00908
           A2           0.02065   0.06031   0.02124   0.00241  -0.00400
           A3           0.02953   0.00088  -0.00822   0.00631   0.00049
           A4          -0.01667  -0.01179   0.01124  -0.00606  -0.00043
           A5          -0.01667  -0.01179   0.01124  -0.00606  -0.00043
           A6           0.01050   0.01375  -0.00547   0.00550   0.00303
           A7           0.01050   0.01375  -0.00547   0.00550   0.00303
           A8          -0.01630  -0.00419  -0.00329  -0.00488  -0.00544
           D1           0.00000   0.00000   0.00000   0.00000   0.00000
           D2           0.00000   0.00000   0.00000   0.00000   0.00000
           D3          -0.00475  -0.00410  -0.00141  -0.00325  -0.00412
           D4           0.00475   0.00410   0.00141   0.00325   0.00412
                          R6        A1        A2        A3        A4
           R6           0.35047
           A1           0.00908   0.41578
           A2          -0.00400  -0.05530   0.29056
           A3           0.00049  -0.02554   0.02728   0.15501
           A4          -0.00043   0.01320  -0.01408   0.00879   0.15079
           A5          -0.00043   0.01320  -0.01408   0.00879  -0.00921
           A6           0.00303   0.01318  -0.00012  -0.01110   0.01064
           A7           0.00303   0.01318  -0.00012  -0.01110   0.01064
           A8          -0.00544  -0.02681   0.00186   0.00910  -0.01097
           D1           0.00000   0.00000   0.00000   0.00000   0.00000
           D2           0.00000   0.00000   0.00000   0.00000   0.00000
           D3          -0.00412  -0.02347   0.00617   0.00689  -0.00822
           D4           0.00412   0.02347  -0.00617  -0.00689   0.00822
                          A5        A6        A7        A8        D1
           A5           0.15079
           A6           0.01064   0.15345
           A7           0.01064  -0.00655   0.15345
           A8          -0.01097   0.00254   0.00254   0.16770
           D1           0.00000   0.00000   0.00000   0.00000   0.02288
           D2           0.00000   0.00000   0.00000   0.00000   0.00000
           D3          -0.00822   0.00177   0.00177   0.00599   0.00000
           D4           0.00822  -0.00177  -0.00177  -0.00599   0.00000
                          D2        D3        D4
           D2           0.01561
           D3           0.00000   0.01976
           D4           0.00000  -0.00415   0.01976
 ITU=  0  1  1  1  1  1  1  0  1  0
     Eigenvalues ---    0.01561   0.02288   0.06876   0.08848   0.10576
     Eigenvalues ---    0.15205   0.16000   0.16318   0.28482   0.34420
     Eigenvalues ---    0.34928   0.35026   0.36911   0.45017   1.12891
 En-DIIS/RFO-DIIS IScMMF=        0 using points:    10    9    8
 RFO step:  Lambda=-3.09409316D-08.
 NNeg= 0 NP= 3 Switch=  2.50D-03 Rises=F DC=  1.30D-05 SmlDif=  1.00D-05
 RMS Error=  0.5825504486D-04 NUsed= 3 EDIIS=F
 DidBck=F Rises=F RFO-DIIS coefs:    0.96308    0.05020   -0.01328
 Iteration  1 RMS(Cart)=  0.00018884 RMS(Int)=  0.00000013
 Iteration  2 RMS(Cart)=  0.00000002 RMS(Int)=  0.00000013
 ITry= 1 IFail=0 DXMaxC= 4.27D-04 DCOld= 1.00D+10 DXMaxT= 8.49D-01 DXLimC= 3.00D+00 Rises=F
 ClnCor:  largest displacement from symmetrization is 4.88D-13 for atom     7.
 Variable       Old X    -DE/DX   Delta X   Delta X   Delta X     New X
                                 (Linear)    (Quad)   (Total)
    R1        2.23287   0.00000  -0.00003   0.00009   0.00006   2.23293
    R2        3.36333  -0.00005   0.00014  -0.00038  -0.00024   3.36309
    R3        3.37446   0.00000  -0.00001   0.00002   0.00001   3.37447
    R4        2.08223   0.00002   0.00000   0.00006   0.00005   2.08228
    R5        2.08427   0.00000   0.00001   0.00000   0.00001   2.08428
    R6        2.08427   0.00000   0.00001   0.00000   0.00001   2.08428
    A1        2.03028  -0.00011  -0.00006  -0.00020  -0.00026   2.03002
    A2        1.76072  -0.00001  -0.00005   0.00003  -0.00001   1.76070
    A3        1.87649  -0.00001   0.00001  -0.00021  -0.00019   1.87629
    A4        1.92955   0.00001   0.00002   0.00013   0.00015   1.92969
    A5        1.92955   0.00001   0.00002   0.00013   0.00015   1.92969
    A6        1.91318  -0.00001  -0.00001  -0.00011  -0.00012   1.91305
    A7        1.91318  -0.00001  -0.00001  -0.00011  -0.00012   1.91305
    A8        1.90179   0.00001  -0.00003   0.00016   0.00014   1.90192
    D1        0.00000   0.00000   0.00000   0.00000   0.00000   0.00000
    D2        3.14159   0.00000   0.00000   0.00000   0.00000   3.14159
    D3       -1.05374  -0.00002   0.00000  -0.00019  -0.00018  -1.05392
    D4        1.05374   0.00002   0.00000   0.00019   0.00018   1.05392
         Item               Value     Threshold  Converged?
 Maximum Force            0.000114     0.000450     YES
 RMS     Force            0.000031     0.000300     YES
 Maximum Displacement     0.000427     0.001800     YES
 RMS     Displacement     0.000189     0.001200     YES
 Predicted change in Energy=-3.050545D-08
 Optimization completed.
    -- Stationary point found.
                           ----------------------------
                           !   Optimized Parameters   !
                           ! (Angstroms and Degrees)  !
 --------------------------                            --------------------------
 ! Name  Definition              Value          Derivative Info.                !
 --------------------------------------------------------------------------------
 ! R1    R(1,2)                  1.1816         -DE/DX =    0.0                 !
 ! R2    R(2,3)                  1.7798         -DE/DX =    0.0                 !
 ! R3    R(3,4)                  1.7857         -DE/DX =    0.0                 !
 ! R4    R(4,5)                  1.1019         -DE/DX =    0.0                 !
 ! R5    R(4,6)                  1.1029         -DE/DX =    0.0                 !
 ! R6    R(4,7)                  1.1029         -DE/DX =    0.0                 !
 ! A1    A(1,2,3)              116.3264         -DE/DX =   -0.0001              !
 ! A2    A(2,3,4)              100.8817         -DE/DX =    0.0                 !
 ! A3    A(3,4,5)              107.5149         -DE/DX =    0.0                 !
 ! A4    A(3,4,6)              110.5549         -DE/DX =    0.0                 !
 ! A5    A(3,4,7)              110.5549         -DE/DX =    0.0                 !
 ! A6    A(5,4,6)              109.617          -DE/DX =    0.0                 !
 ! A7    A(5,4,7)              109.617          -DE/DX =    0.0                 !
 ! A8    A(6,4,7)              108.9643         -DE/DX =    0.0                 !
 ! D1    D(1,2,3,4)              0.0            -DE/DX =    0.0                 !
 ! D2    D(2,3,4,5)            180.0            -DE/DX =    0.0                 !
 ! D3    D(2,3,4,6)            -60.3746         -DE/DX =    0.0                 !
 ! D4    D(2,3,4,7)             60.3746         -DE/DX =    0.0                 !
 --------------------------------------------------------------------------------
 Lowest energy point so far.  Saving SCF results.
 GradGradGradGradGradGradGradGradGradGradGradGradGradGradGradGradGradGrad

 Largest change from initial coordinates is atom    5       0.836 Angstoms.
 Leave Link  103 at Thu Sep 17 12:30:33 2015, MaxMem=    33554432 cpu:         0.0
 (Enter /group/hpc-share/gaussian/2009D/g09/l202.exe)
                          Input orientation:                          
 ---------------------------------------------------------------------
 Center     Atomic      Atomic             Coordinates (Angstroms)
 Number     Number       Type             X           Y           Z
 ---------------------------------------------------------------------
      1          8           0        0.594509    0.000000    0.046425
      2          7           0        0.234569    0.000000    1.171849
      3         16           0        1.513507    0.000000    2.409585
      4          6           0        2.975250    0.000000    1.383921
      5          1           0        3.850252    0.000000    2.053609
      6          1           0        2.999023   -0.897728    0.743597
      7          1           0        2.999023    0.897728    0.743597
 ---------------------------------------------------------------------
                    Distance matrix (angstroms):
                    1          2          3          4          5
     1  O    0.000000
     2  N    1.181582   0.000000
     3  S    2.535564   1.779796   0.000000
     4  C    2.730719   2.748874   1.785687   0.000000
     5  H    3.824741   3.721647   2.363703   1.101866   0.000000
     6  H    2.659634   2.937945   2.405866   1.102949   1.801842
     7  H    2.659634   2.937945   2.405866   1.102949   1.801842
                    6          7
     6  H    0.000000
     7  H    1.795457   0.000000
 Stoichiometry    CH3NOS
 Framework group  CS[SG(CHNOS),X(H2)]
 Deg. of freedom    10
 Full point group                 CS      NOp   2
 RotChk:  IX=0 Diff= 5.97D-16
 Largest Abelian subgroup         CS      NOp   2
 Largest concise Abelian subgroup CS      NOp   2
                         Standard orientation:                         
 ---------------------------------------------------------------------
 Center     Atomic      Atomic             Coordinates (Angstroms)
 Number     Number       Type             X           Y           Z
 ---------------------------------------------------------------------
      1          8           0       -0.776994   -1.476640    0.000000
      2          7           0       -1.203153   -0.374585    0.000000
      3         16           0        0.000000    0.936939    0.000000
      4          6           0        1.520090   -0.000080    0.000000
      5          1           0        2.353764    0.720403    0.000000
      6          1           0        1.581859   -0.637861    0.897728
      7          1           0        1.581859   -0.637861   -0.897728
 ---------------------------------------------------------------------
 Rotational constants (GHZ):     11.4063271      5.4293578      3.7675304
 Leave Link  202 at Thu Sep 17 12:30:33 2015, MaxMem=    33554432 cpu:         0.0
 (Enter /group/hpc-share/gaussian/2009D/g09/l601.exe)
 Copying SCF densities to generalized density rwf, IOpCl= 0 IROHF=0.

 **********************************************************************

            Population analysis using the SCF density.

 **********************************************************************

 Orbital symmetries:
       Occupied  (A') (A') (A') (A') (A') (A') (A') (A") (A') (A')
                 (A') (A') (A') (A") (A') (A") (A') (A') (A") (A')
       Virtual   (A") (A') (A') (A') (A') (A") (A') (A') (A") (A')
                 (A') (A") (A') (A') (A") (A') (A') (A') (A") (A')
                 (A") (A') (A") (A') (A') (A') (A') (A") (A') (A')
                 (A') (A") (A') (A") (A') (A") (A') (A") (A') (A')
                 (A") (A') (A') (A") (A') (A') (A") (A") (A') (A')
                 (A')
 The electronic state is 1-A'.
 Alpha  occ. eigenvalues --  -89.03393 -19.28384 -14.52814 -10.27083  -8.03666
 Alpha  occ. eigenvalues --   -5.97872  -5.97398  -5.96986  -1.21619  -0.84783
 Alpha  occ. eigenvalues --   -0.73622  -0.61203  -0.53030  -0.50193  -0.49185
 Alpha  occ. eigenvalues --   -0.45379  -0.44088  -0.37569  -0.28171  -0.25145
 Alpha virt. eigenvalues --   -0.07905   0.00815   0.05914   0.10503   0.11781
 Alpha virt. eigenvalues --    0.12325   0.29692   0.38185   0.39749   0.42492
 Alpha virt. eigenvalues --    0.47024   0.55251   0.60393   0.62058   0.64680
 Alpha virt. eigenvalues --    0.66295   0.67984   0.69256   0.69424   0.70393
 Alpha virt. eigenvalues --    0.75305   0.75877   0.83163   0.83339   0.90658
 Alpha virt. eigenvalues --    0.97040   0.99420   1.00198   1.09271   1.16784
 Alpha virt. eigenvalues --    1.39167   1.69386   1.71512   1.90146   1.97318
 Alpha virt. eigenvalues --    2.06351   2.09878   2.10445   2.13416   2.32587
 Alpha virt. eigenvalues --    2.64228   2.65231   2.69439   3.21531   3.25209
 Alpha virt. eigenvalues --    3.65298   4.63250   4.64805   4.70418   4.78397
 Alpha virt. eigenvalues --    4.93473
          Condensed to atoms (all electrons):
               1          2          3          4          5          6
     1  O    7.938669   0.316624  -0.121915   0.017380   0.000748   0.009541
     2  N    0.316624   6.632143   0.100046  -0.019720   0.001716  -0.004427
     3  S   -0.121915   0.100046  15.775496   0.231803  -0.022087  -0.032310
     4  C    0.017380  -0.019720   0.231803   5.114350   0.376309   0.375005
     5  H    0.000748   0.001716  -0.022087   0.376309   0.485597  -0.014061
     6  H    0.009541  -0.004427  -0.032310   0.375005  -0.014061   0.498457
     7  H    0.009541  -0.004427  -0.032310   0.375005  -0.014061  -0.019983
               7
     1  O    0.009541
     2  N   -0.004427
     3  S   -0.032310
     4  C    0.375005
     5  H   -0.014061
     6  H   -0.019983
     7  H    0.498457
 Mulliken charges:
               1
     1  O   -0.170587
     2  N   -0.021954
     3  S    0.101277
     4  C   -0.470131
     5  H    0.185840
     6  H    0.187778
     7  H    0.187778
 Sum of Mulliken charges =   0.00000
 Mulliken charges with hydrogens summed into heavy atoms:
               1
     1  O   -0.170587
     2  N   -0.021954
     3  S    0.101277
     4  C    0.091265
 Electronic spatial extent (au):  <R**2>=            335.5610
 Charge=              0.0000 electrons
 Dipole moment (field-independent basis, Debye):
    X=              2.2600    Y=              0.4982    Z=              0.0000  Tot=              2.3143
 Quadrupole moment (field-independent basis, Debye-Ang):
   XX=            -29.3501   YY=            -32.8284   ZZ=            -29.9416
   XY=             -0.3184   XZ=              0.0000   YZ=              0.0000
 Traceless Quadrupole moment (field-independent basis, Debye-Ang):
   XX=              1.3566   YY=             -2.1217   ZZ=              0.7651
   XY=             -0.3184   XZ=              0.0000   YZ=              0.0000
 Octapole moment (field-independent basis, Debye-Ang**2):
  XXX=              4.1647  YYY=             -2.2658  ZZZ=              0.0000  XYY=              1.3968
  XXY=              1.0538  XXZ=              0.0000  XZZ=             -1.1132  YZZ=             -4.2630
  YYZ=              0.0000  XYZ=              0.0000
 Hexadecapole moment (field-independent basis, Debye-Ang**3):
 XXXX=           -212.8209 YYYY=           -182.9838 ZZZZ=            -36.6557 XXXY=            -20.4496
 XXXZ=              0.0000 YYYX=            -25.8052 YYYZ=              0.0000 ZZZX=              0.0000
 ZZZY=              0.0000 XXYY=            -61.9686 XXZZ=            -40.3010 YYZZ=            -35.3425
 XXYZ=              0.0000 YYXZ=              0.0000 ZZXY=             -8.5102
 N-N= 1.588789795105D+02 E-N=-1.661163266522D+03  KE= 5.656381429761D+02
 Symmetry A'   KE= 5.209335524145D+02
 Symmetry A"   KE= 4.470459056162D+01
 No NMR shielding tensors so no spin-rotation constants.
 Leave Link  601 at Thu Sep 17 12:30:33 2015, MaxMem=    33554432 cpu:         1.5
 (Enter /group/hpc-share/gaussian/2009D/g09/l9999.exe)
 B after Tr=    -0.500648    0.000000    0.042215
         Rot=    0.998455    0.000000   -0.055575    0.000000 Ang=  -6.37 deg.
 Final structure in terms of initial Z-matrix:
 O
 N,1,no2
 S,2,sn3,1,sno3
 C,3,cs4,1,cso4,2,dih4,0
 H,4,hc5,3,hcs5,1,dih5,0
 H,4,hc6,3,hcs6,5,dih6,0
 H,4,hc7,3,hcs7,5,dih7,0
      Variables:
 no2=1.18158238
 sn3=1.77979573
 sno3=116.32644402
 cs4=1.78568726
 cso4=76.19405367
 dih4=180.
 hc5=1.10186614
 hcs5=107.51489237
 dih5=180.
 hc6=1.10294893
 hcs6=110.55486473
 dih6=119.62538344
 hc7=1.10294893
 hcs7=110.55486473
 dih7=-119.62538344
 1\1\GINC-HPC-CN4\FOpt\RPBE1PBE\Gen\C1H3N1O1S1\6498IVANOVM\17-Sep-2015\
 0\\#P PBE1PBE/gen opt\\cis-mesno\\0,1\O,0.749118921,0.,-0.1244714512\N
 ,0.3891791811,0.,1.0009530483\S,1.6681172024,0.,2.2386890368\C,3.12985
 99534,0.,1.2130248025\H,4.0048615865,0.,1.882712137\H,3.1536329111,-0.
 8977284996,0.5727008792\H,3.1536329111,0.8977284996,0.5727008792\\Vers
 ion=EM64L-G09RevD.01\State=1-A'\HF=-567.4105806\RMSD=4.848e-09\RMSF=2.
 451e-05\Dipole=0.8992433,0.,0.1428339\Quadrupole=0.971381,0.5688355,-1
 .5402164,0.,-0.3884341,0.\PG=CS [SG(C1H1N1O1S1),X(H2)]\\@


 Sacred cows make the best hamburger.
                               -- Mark Twain
 Job cpu time:       0 days  0 hours  2 minutes 30.5 seconds.
 File lengths (MBytes):  RWF=      5 Int=      0 D2E=      0 Chk=      1 Scr=      1
 Normal termination of Gaussian 09 at Thu Sep 17 12:30:33 2015.
