 Entering Gaussian System, Link 0=g09
 Input=cis-mesno.com
 Output=cis-mesno.log
 AtFile(1): cis-mesno.zmat
             o
             n   1 no2
             s    2 sn3         1 sno3
             c    3 cs4         1 cso4          2 dih4
             h    4 hc5         3 hcs5          1 dih5
             h    4 hc6         3 hcs6          5 dih6
             h    4 hc7         3 hcs7          5 dih7
            
            no2         1.400000
            sn3         1.625000
            sno3        109.471
            cs4         1.710000
            cso4        109.471
            dih4        180.000
            hc5         1.089000
            hcs5        109.471
            dih5        180.000
            hc6         1.089000
            hcs6        109.471
            dih6        120.000
            hc7         1.089000
            hcs7        109.471
            dih7        240.000
 Initial command:
 /group/hpc-share/gaussian/2009D/g09/l1.exe "/scratch/gaussian/g_cis-mesno.com-809782.hn1.marqnet.mu.edu/Gau-308.inp" -scrdir="/scratch/gaussian/g_cis-mesno.com-809782.hn1.marqnet.mu.edu/"
 Entering Link 1 = /group/hpc-share/gaussian/2009D/g09/l1.exe PID=       309.
  
 Copyright (c) 1988,1990,1992,1993,1995,1998,2003,2009,2013,
            Gaussian, Inc.  All Rights Reserved.
  
 This is part of the Gaussian(R) 09 program.  It is based on
 the Gaussian(R) 03 system (copyright 2003, Gaussian, Inc.),
 the Gaussian(R) 98 system (copyright 1998, Gaussian, Inc.),
 the Gaussian(R) 94 system (copyright 1995, Gaussian, Inc.),
 the Gaussian 92(TM) system (copyright 1992, Gaussian, Inc.),
 the Gaussian 90(TM) system (copyright 1990, Gaussian, Inc.),
 the Gaussian 88(TM) system (copyright 1988, Gaussian, Inc.),
 the Gaussian 86(TM) system (copyright 1986, Carnegie Mellon
 University), and the Gaussian 82(TM) system (copyright 1983,
 Carnegie Mellon University). Gaussian is a federally registered
 trademark of Gaussian, Inc.
  
 This software contains proprietary and confidential information,
 including trade secrets, belonging to Gaussian, Inc.
  
 This software is provided under written license and may be
 used, copied, transmitted, or stored only in accord with that
 written license.
  
 The following legend is applicable only to US Government
 contracts under FAR:
  
                    RESTRICTED RIGHTS LEGEND
  
 Use, reproduction and disclosure by the US Government is
 subject to restrictions as set forth in subparagraphs (a)
 and (c) of the Commercial Computer Software - Restricted
 Rights clause in FAR 52.227-19.
  
 Gaussian, Inc.
 340 Quinnipiac St., Bldg. 40, Wallingford CT 06492
  
  
 ---------------------------------------------------------------
 Warning -- This program may not be used in any manner that
 competes with the business of Gaussian, Inc. or will provide
 assistance to any competitor of Gaussian, Inc.  The licensee
 of this program is prohibited from giving any competitor of
 Gaussian, Inc. access to this program.  By using this program,
 the user acknowledges that Gaussian, Inc. is engaged in the
 business of creating and licensing software in the field of
 computational chemistry and represents and warrants to the
 licensee that it is not a competitor of Gaussian, Inc. and that
 it will not use this program in any manner prohibited above.
 ---------------------------------------------------------------
  

 Cite this work as:
 Gaussian 09, Revision D.01,
 M. J. Frisch, G. W. Trucks, H. B. Schlegel, G. E. Scuseria, 
 M. A. Robb, J. R. Cheeseman, G. Scalmani, V. Barone, B. Mennucci, 
 G. A. Petersson, H. Nakatsuji, M. Caricato, X. Li, H. P. Hratchian, 
 A. F. Izmaylov, J. Bloino, G. Zheng, J. L. Sonnenberg, M. Hada, 
 M. Ehara, K. Toyota, R. Fukuda, J. Hasegawa, M. Ishida, T. Nakajima, 
 Y. Honda, O. Kitao, H. Nakai, T. Vreven, J. A. Montgomery, Jr., 
 J. E. Peralta, F. Ogliaro, M. Bearpark, J. J. Heyd, E. Brothers, 
 K. N. Kudin, V. N. Staroverov, T. Keith, R. Kobayashi, J. Normand, 
 K. Raghavachari, A. Rendell, J. C. Burant, S. S. Iyengar, J. Tomasi, 
 M. Cossi, N. Rega, J. M. Millam, M. Klene, J. E. Knox, J. B. Cross, 
 V. Bakken, C. Adamo, J. Jaramillo, R. Gomperts, R. E. Stratmann, 
 O. Yazyev, A. J. Austin, R. Cammi, C. Pomelli, J. W. Ochterski, 
 R. L. Martin, K. Morokuma, V. G. Zakrzewski, G. A. Voth, 
 P. Salvador, J. J. Dannenberg, S. Dapprich, A. D. Daniels, 
 O. Farkas, J. B. Foresman, J. V. Ortiz, J. Cioslowski, 
 and D. J. Fox, Gaussian, Inc., Wallingford CT, 2013.
 
 ******************************************
 Gaussian 09:  EM64L-G09RevD.01 24-Apr-2013
                21-Sep-2015 
 ******************************************
 %nproc=8
 Will use up to    8 processors via shared memory.
 %chk=cis-mesno.chk
 ------------------------
 #P b3lyp/aug-cc-pvdz opt
 ------------------------
 1/14=-1,18=20,19=15,26=3,38=1/1,3;
 2/9=110,12=2,17=6,18=5,40=1/2;
 3/5=16,7=10,11=2,16=1,25=1,30=1,71=1,74=-5/1,2,3;
 4//1;
 5/5=2,38=5/2;
 6/7=2,8=2,9=2,10=2,28=1/1;
 7//1,2,3,16;
 1/14=-1,18=20,19=15,26=3/3(2);
 2/9=110/2;
 99//99;
 2/9=110/2;
 3/5=16,7=10,11=2,16=1,25=1,30=1,71=1,74=-5/1,2,3;
 4/5=5,16=3,69=1/1;
 5/5=2,38=5/2;
 7//1,2,3,16;
 1/14=-1,18=20,19=15,26=3/3(-5);
 2/9=110/2;
 6/7=2,8=2,9=2,10=2,19=2,28=1/1;
 99/9=1/99;
 Leave Link    1 at Mon Sep 21 22:14:40 2015, MaxMem=           0 cpu:         0.5
 (Enter /group/hpc-share/gaussian/2009D/g09/l101.exe)
 ---------
 cis-mesno
 ---------
 Symbolic Z-matrix:
 Charge =  0 Multiplicity = 1
 o
 n                    1    no2
 s                    2    sn3      1    sno3
 c                    3    cs4      1    cso4     2    dih4     0
 h                    4    hc5      3    hcs5     1    dih5     0
 h                    4    hc6      3    hcs6     5    dih6     0
 h                    4    hc7      3    hcs7     5    dih7     0
       Variables:
  no2                   1.4                      
  sn3                   1.625                    
  sno3                109.471                    
  cs4                   1.71                     
  cso4                109.471                    
  dih4                180.                       
  hc5                   1.089                    
  hcs5                109.471                    
  dih5                180.                       
  hc6                   1.089                    
  hcs6                109.471                    
  dih6                120.                       
  hc7                   1.089                    
  hcs7                109.471                    
  dih7                240.                       
 
     5 tetrahedral angles replaced.
 NAtoms=      7 NQM=        7 NQMF=       0 NMMI=      0 NMMIF=      0
                NMic=       0 NMicF=      0.
                    Isotopes and Nuclear Properties:
 (Nuclear quadrupole moments (NQMom) in fm**2, nuclear magnetic moments (NMagM)
  in nuclear magnetons)

  Atom         1           2           3           4           5           6           7
 IAtWgt=          16          14          32          12           1           1           1
 AtmWgt=  15.9949146  14.0030740  31.9720718  12.0000000   1.0078250   1.0078250   1.0078250
 NucSpn=           0           2           0           0           1           1           1
 AtZEff=   0.0000000   0.0000000   0.0000000   0.0000000   0.0000000   0.0000000   0.0000000
 NQMom=    0.0000000   2.0440000   0.0000000   0.0000000   0.0000000   0.0000000   0.0000000
 NMagM=    0.0000000   0.4037610   0.0000000   0.0000000   2.7928460   2.7928460   2.7928460
 AtZNuc=   8.0000000   7.0000000  16.0000000   6.0000000   1.0000000   1.0000000   1.0000000
 Leave Link  101 at Mon Sep 21 22:14:40 2015, MaxMem=    33554432 cpu:         1.0
 (Enter /group/hpc-share/gaussian/2009D/g09/l103.exe)

 GradGradGradGradGradGradGradGradGradGradGradGradGradGradGradGradGradGrad
 Berny optimization.
 Initialization pass.
                           ----------------------------
                           !    Initial Parameters    !
                           ! (Angstroms and Degrees)  !
 --------------------------                            --------------------------
 ! Name  Definition              Value          Derivative Info.                !
 --------------------------------------------------------------------------------
 ! R1    R(1,2)                  1.4            estimate D2E/DX2                !
 ! R2    R(2,3)                  1.625          estimate D2E/DX2                !
 ! R3    R(3,4)                  1.71           estimate D2E/DX2                !
 ! R4    R(4,5)                  1.089          estimate D2E/DX2                !
 ! R5    R(4,6)                  1.089          estimate D2E/DX2                !
 ! R6    R(4,7)                  1.089          estimate D2E/DX2                !
 ! A1    A(1,2,3)              109.4712         estimate D2E/DX2                !
 ! A2    A(2,3,4)              141.7249         estimate D2E/DX2                !
 ! A3    A(3,4,5)              109.4712         estimate D2E/DX2                !
 ! A4    A(3,4,6)              109.4712         estimate D2E/DX2                !
 ! A5    A(3,4,7)              109.4712         estimate D2E/DX2                !
 ! A6    A(5,4,6)              109.4712         estimate D2E/DX2                !
 ! A7    A(5,4,7)              109.4712         estimate D2E/DX2                !
 ! A8    A(6,4,7)              109.4712         estimate D2E/DX2                !
 ! D1    D(1,2,3,4)              0.0            estimate D2E/DX2                !
 ! D2    D(2,3,4,5)            180.0            estimate D2E/DX2                !
 ! D3    D(2,3,4,6)            -60.0            estimate D2E/DX2                !
 ! D4    D(2,3,4,7)             60.0            estimate D2E/DX2                !
 --------------------------------------------------------------------------------
 Trust Radius=3.00D-01 FncErr=1.00D-07 GrdErr=1.00D-06
 Number of steps in this run=     28 maximum allowed number of steps=    100.
 GradGradGradGradGradGradGradGradGradGradGradGradGradGradGradGradGradGrad

 Leave Link  103 at Mon Sep 21 22:14:40 2015, MaxMem=    33554432 cpu:         0.0
 (Enter /group/hpc-share/gaussian/2009D/g09/l202.exe)
                          Input orientation:                          
 ---------------------------------------------------------------------
 Center     Atomic      Atomic             Coordinates (Angstroms)
 Number     Number       Type             X           Y           Z
 ---------------------------------------------------------------------
      1          8           0        0.000000    0.000000    0.000000
      2          7           0        0.000000    0.000000    1.400000
      3         16           0        1.532065    0.000000    1.941667
      4          6           0        3.150798    0.000000    1.390484
      5          1           0        3.825365    0.000000    2.245399
      6          1           0        3.328953   -0.889165    0.787518
      7          1           0        3.328953    0.889165    0.787518
 ---------------------------------------------------------------------
                    Distance matrix (angstroms):
                    1          2          3          4          5
     1  O    0.000000
     2  N    1.400000   0.000000
     3  S    2.473316   1.625000   0.000000
     4  C    3.443976   3.150812   1.710000   0.000000
     5  H    4.435678   3.917668   2.313327   1.089000   0.000000
     6  H    3.534505   3.499668   2.313327   1.089000   1.778330
     7  H    3.534505   3.499668   2.313327   1.089000   1.778330
                    6          7
     6  H    0.000000
     7  H    1.778330   0.000000
 Stoichiometry    CH3NOS
 Framework group  CS[SG(CHNOS),X(H2)]
 Deg. of freedom    10
 Full point group                 CS      NOp   2
 Largest Abelian subgroup         CS      NOp   2
 Largest concise Abelian subgroup CS      NOp   2
                         Standard orientation:                         
 ---------------------------------------------------------------------
 Center     Atomic      Atomic             Coordinates (Angstroms)
 Number     Number       Type             X           Y           Z
 ---------------------------------------------------------------------
      1          8           0       -0.910332   -1.656725    0.000000
      2          7           0       -1.312144   -0.315626    0.000000
      3         16           0        0.000000    0.642968    0.000000
      4          6           0        1.708824    0.579565    0.000000
      5          1           0        2.109643    1.592118    0.000000
      6          1           0        2.052540    0.053099    0.889165
      7          1           0        2.052540    0.053099   -0.889165
 ---------------------------------------------------------------------
 Rotational constants (GHZ):     16.7209568      4.1114492      3.3701594
 Leave Link  202 at Mon Sep 21 22:14:40 2015, MaxMem=    33554432 cpu:         0.3
 (Enter /group/hpc-share/gaussian/2009D/g09/l301.exe)
 Standard basis: Aug-CC-pVDZ (5D, 7F)
 Ernie: Thresh=  0.10000D-02 Tol=  0.10000D-05 Strict=F.
 Ernie:  16 primitive shells out of 149 were deleted.
 There are    91 symmetry adapted cartesian basis functions of A'  symmetry.
 There are    40 symmetry adapted cartesian basis functions of A"  symmetry.
 There are    83 symmetry adapted basis functions of A'  symmetry.
 There are    40 symmetry adapted basis functions of A"  symmetry.
   123 basis functions,   243 primitive gaussians,   131 cartesian basis functions
    20 alpha electrons       20 beta electrons
       nuclear repulsion energy       156.1950372443 Hartrees.
 IExCor=  402 DFT=T Ex+Corr=B3LYP ExCW=0 ScaHFX=  0.200000
 ScaDFX=  0.800000  0.720000  1.000000  0.810000 ScalE2=  1.000000  1.000000
 IRadAn=      0 IRanWt=     -1 IRanGd=            0 ICorTp=0 IEmpDi=  4
 NAtoms=    7 NActive=    7 NUniq=    6 SFac= 1.36D+00 NAtFMM=   60 NAOKFM=F Big=F
 Integral buffers will be    131072 words long.
 Raffenetti 2 integral format.
 Two-electron integral symmetry is turned on.
 Leave Link  301 at Mon Sep 21 22:14:40 2015, MaxMem=    33554432 cpu:         0.4
 (Enter /group/hpc-share/gaussian/2009D/g09/l302.exe)
 NPDir=0 NMtPBC=     1 NCelOv=     1 NCel=       1 NClECP=     1 NCelD=      1
         NCelK=      1 NCelE2=     1 NClLst=     1 CellRange=     0.0.
 One-electron integrals computed using PRISM.
 One-electron integral symmetry used in STVInt
 NBasis=   123 RedAO= T EigKep=  4.62D-04  NBF=    83    40
 NBsUse=   123 1.00D-06 EigRej= -1.00D+00 NBFU=    83    40
 Precomputing XC quadrature grid using
 IXCGrd= 4 IRadAn=           0 IRanWt=          -1 IRanGd=           0 AccXCQ= 0.00D+00.
 Generated NRdTot=       0 NPtTot=           0 NUsed=           0 NTot=          32
 NSgBfM=   131   131   131   131   131 MxSgAt=     7 MxSgA2=     7.
 Leave Link  302 at Mon Sep 21 22:14:41 2015, MaxMem=    33554432 cpu:         2.1
 (Enter /group/hpc-share/gaussian/2009D/g09/l303.exe)
 DipDrv:  MaxL=1.
 Leave Link  303 at Mon Sep 21 22:14:41 2015, MaxMem=    33554432 cpu:         0.3
 (Enter /group/hpc-share/gaussian/2009D/g09/l401.exe)
 ExpMin= 2.97D-02 ExpMax= 1.11D+05 ExpMxC= 1.07D+03 IAcc=3 IRadAn=         5 AccDes= 0.00D+00
 Harris functional with IExCor=  402 and IRadAn=       5 diagonalized for initial guess.
 HarFok:  IExCor=  402 AccDes= 0.00D+00 IRadAn=         5 IDoV= 1 UseB2=F ITyADJ=14
 ICtDFT=  3500011 ScaDFX=  1.000000  1.000000  1.000000  1.000000
 FoFCou: FMM=F IPFlag=           0 FMFlag=      100000 FMFlg1=           0
         NFxFlg=           0 DoJE=T BraDBF=F KetDBF=T FulRan=T
         wScrn=  0.000000 ICntrl=     500 IOpCl=  0 I1Cent=   200000004 NGrid=           0
         NMat0=    1 NMatS0=      1 NMatT0=    0 NMatD0=    1 NMtDS0=    0 NMtDT0=    0
 Petite list used in FoFCou.
 Harris En= -567.950692634747    
 JPrj=0 DoOrth=F DoCkMO=F.
 Initial guess orbital symmetries:
       Occupied  (A') (A') (A') (A') (A') (A') (A') (A") (A') (A')
                 (A') (A') (A') (A") (A') (A') (A") (A') (A") (A')
       Virtual   (A") (A') (A') (A') (A") (A') (A') (A') (A') (A")
                 (A') (A") (A') (A") (A') (A') (A') (A") (A') (A")
                 (A') (A') (A") (A') (A') (A') (A') (A') (A") (A')
                 (A") (A') (A') (A") (A") (A') (A') (A") (A') (A')
                 (A") (A') (A') (A") (A') (A') (A") (A") (A') (A')
                 (A") (A') (A') (A") (A') (A") (A') (A') (A") (A')
                 (A") (A') (A') (A") (A') (A') (A") (A') (A") (A')
                 (A') (A') (A") (A') (A") (A') (A") (A') (A') (A")
                 (A') (A') (A") (A') (A') (A') (A") (A') (A") (A')
                 (A") (A') (A') (A') (A") (A') (A') (A') (A") (A')
                 (A") (A') (A')
 The electronic state of the initial guess is 1-A'.
 Leave Link  401 at Mon Sep 21 22:14:41 2015, MaxMem=    33554432 cpu:         2.8
 (Enter /group/hpc-share/gaussian/2009D/g09/l502.exe)
 Closed shell SCF:
 Using DIIS extrapolation, IDIIS=  1040.
 Integral symmetry usage will be decided dynamically.
 IVT=       72237 IEndB=       72237 NGot=    33554432 MDV=    33516128
 LenX=    33516128 LenY=    33498526
 Requested convergence on RMS density matrix=1.00D-08 within 128 cycles.
 Requested convergence on MAX density matrix=1.00D-06.
 Requested convergence on             energy=1.00D-06.
 No special actions if energy rises.
 Fock matrices will be formed incrementally for  20 cycles.

 Cycle   1  Pass 1  IDiag  1:
 FoFJK:  IHMeth= 1 ICntrl=       0 DoSepK=F KAlg= 0 I1Cent=   0 FoldK=F
 IRaf= 990000000 NMat=   1 IRICut=       1 DoRegI=T DoRafI=F ISym2E= 1.
 FoFCou: FMM=F IPFlag=           0 FMFlag=      100000 FMFlg1=           0
         NFxFlg=           0 DoJE=F BraDBF=F KetDBF=F FulRan=T
         wScrn=  0.000000 ICntrl=       0 IOpCl=  0 I1Cent=           0 NGrid=           0
         NMat0=    1 NMatS0=      1 NMatT0=    0 NMatD0=    1 NMtDS0=    0 NMtDT0=    0
 Petite list used in FoFCou.
 E= -567.762177541852    
 DIIS: error= 3.46D-02 at cycle   1 NSaved=   1.
 NSaved= 1 IEnMin= 1 EnMin= -567.762177541852     IErMin= 1 ErrMin= 3.46D-02
 ErrMax= 3.46D-02  0.00D+00 EMaxC= 1.00D-01 BMatC= 2.00D-01 BMatP= 2.00D-01
 IDIUse=3 WtCom= 6.54D-01 WtEn= 3.46D-01
 Coeff-Com:  0.100D+01
 Coeff-En:   0.100D+01
 Coeff:      0.100D+01
 Gap=     0.031 Goal=   None    Shift=    0.000
 GapD=    0.031 DampG=0.250 DampE=0.500 DampFc=0.2500 IDamp=-1.
 Damping current iteration by 2.50D-01
 RMSDP=1.71D-02 MaxDP=3.97D-01              OVMax= 9.03D-01

 Cycle   2  Pass 1  IDiag  1:
 RMSU=  4.26D-03    CP:  9.86D-01
 E= -567.702882192672     Delta-E=        0.059295349180 Rises=F Damp=T
 DIIS: error= 1.42D-02 at cycle   2 NSaved=   2.
 NSaved= 2 IEnMin= 1 EnMin= -567.762177541852     IErMin= 2 ErrMin= 1.42D-02
 ErrMax= 1.42D-02  0.00D+00 EMaxC= 1.00D-01 BMatC= 5.23D-02 BMatP= 2.00D-01
 IDIUse=3 WtCom= 8.58D-01 WtEn= 1.42D-01
 Coeff-Com:  0.236D+00 0.764D+00
 Coeff-En:   0.610D+00 0.390D+00
 Coeff:      0.289D+00 0.711D+00
 Gap=     0.107 Goal=   None    Shift=    0.000
 RMSDP=5.17D-03 MaxDP=1.03D-01 DE= 5.93D-02 OVMax= 3.47D-01

 Cycle   3  Pass 1  IDiag  1:
 RMSU=  4.27D-03    CP:  9.67D-01  3.30D-01
 E= -567.851009220632     Delta-E=       -0.148127027960 Rises=F Damp=F
 DIIS: error= 2.33D-02 at cycle   3 NSaved=   3.
 NSaved= 3 IEnMin= 3 EnMin= -567.851009220632     IErMin= 2 ErrMin= 1.42D-02
 ErrMax= 2.33D-02  0.00D+00 EMaxC= 1.00D-01 BMatC= 1.05D-01 BMatP= 5.23D-02
 IDIUse=2 WtCom= 0.00D+00 WtEn= 1.00D+00
 EnCoef did     1 forward-backward iterations
 Coeff-En:   0.107D+00 0.174D+00 0.720D+00
 Coeff:      0.107D+00 0.174D+00 0.720D+00
 Gap=     0.075 Goal=   None    Shift=    0.000
 RMSDP=6.90D-03 MaxDP=2.46D-01 DE=-1.48D-01 OVMax= 5.12D-01

 Cycle   4  Pass 1  IDiag  1:
 RMSU=  5.06D-03    CP:  9.68D-01  1.27D+00  4.25D-01
 E= -567.370806698298     Delta-E=        0.480202522334 Rises=F Damp=F
 DIIS: error= 6.21D-02 at cycle   4 NSaved=   4.
 NSaved= 4 IEnMin= 3 EnMin= -567.851009220632     IErMin= 2 ErrMin= 1.42D-02
 ErrMax= 6.21D-02  0.00D+00 EMaxC= 1.00D-01 BMatC= 6.30D-01 BMatP= 5.23D-02
 IDIUse=2 WtCom= 0.00D+00 WtEn= 1.00D+00
 EnCoef did     3 forward-backward iterations
 Coeff-En:   0.158D+00 0.000D+00 0.623D+00 0.219D+00
 Coeff:      0.158D+00 0.000D+00 0.623D+00 0.219D+00
 Gap=     0.095 Goal=   None    Shift=    0.000
 RMSDP=4.32D-03 MaxDP=1.41D-01 DE= 4.80D-01 OVMax= 2.96D-01

 Cycle   5  Pass 1  IDiag  1:
 RMSU=  1.42D-03    CP:  9.73D-01  5.46D-01  6.13D-01  4.95D-01
 E= -567.932081157998     Delta-E=       -0.561274459699 Rises=F Damp=F
 DIIS: error= 1.38D-02 at cycle   5 NSaved=   5.
 NSaved= 5 IEnMin= 5 EnMin= -567.932081157998     IErMin= 5 ErrMin= 1.38D-02
 ErrMax= 1.38D-02  0.00D+00 EMaxC= 1.00D-01 BMatC= 2.87D-02 BMatP= 5.23D-02
 IDIUse=3 WtCom= 8.62D-01 WtEn= 1.38D-01
 Coeff-Com:  0.321D-02 0.853D-01 0.280D+00-0.632D-01 0.695D+00
 Coeff-En:   0.000D+00 0.000D+00 0.251D+00 0.000D+00 0.749D+00
 Coeff:      0.276D-02 0.735D-01 0.276D+00-0.545D-01 0.703D+00
 Gap=     0.133 Goal=   None    Shift=    0.000
 RMSDP=1.24D-03 MaxDP=4.66D-02 DE=-5.61D-01 OVMax= 8.39D-02

 Cycle   6  Pass 1  IDiag  1:
 RMSU=  2.23D-04    CP:  9.71D-01  4.23D-01  7.34D-01  3.05D-01  8.96D-01
 E= -567.957351607855     Delta-E=       -0.025270449858 Rises=F Damp=F
 DIIS: error= 2.93D-03 at cycle   6 NSaved=   6.
 NSaved= 6 IEnMin= 6 EnMin= -567.957351607855     IErMin= 6 ErrMin= 2.93D-03
 ErrMax= 2.93D-03  0.00D+00 EMaxC= 1.00D-01 BMatC= 8.82D-04 BMatP= 2.87D-02
 IDIUse=3 WtCom= 9.71D-01 WtEn= 2.93D-02
 Coeff-Com: -0.240D-01 0.287D-01 0.622D-01-0.163D-01 0.236D+00 0.714D+00
 Coeff-En:   0.000D+00 0.000D+00 0.000D+00 0.000D+00 0.148D-01 0.985D+00
 Coeff:     -0.233D-01 0.278D-01 0.604D-01-0.158D-01 0.229D+00 0.722D+00
 Gap=     0.132 Goal=   None    Shift=    0.000
 RMSDP=2.42D-04 MaxDP=9.32D-03 DE=-2.53D-02 OVMax= 2.15D-02

 Cycle   7  Pass 1  IDiag  1:
 RMSU=  1.15D-04    CP:  9.71D-01  4.50D-01  7.34D-01  3.38D-01  9.04D-01
                    CP:  7.36D-01
 E= -567.958101323846     Delta-E=       -0.000749715990 Rises=F Damp=F
 DIIS: error= 5.86D-04 at cycle   7 NSaved=   7.
 NSaved= 7 IEnMin= 7 EnMin= -567.958101323846     IErMin= 7 ErrMin= 5.86D-04
 ErrMax= 5.86D-04  0.00D+00 EMaxC= 1.00D-01 BMatC= 8.79D-05 BMatP= 8.82D-04
 IDIUse=3 WtCom= 9.94D-01 WtEn= 5.86D-03
 Coeff-Com: -0.194D-01 0.142D-01 0.164D-01-0.560D-02 0.104D+00 0.561D+00
 Coeff-Com:  0.329D+00
 Coeff-En:   0.000D+00 0.000D+00 0.000D+00 0.000D+00 0.000D+00 0.422D-01
 Coeff-En:   0.958D+00
 Coeff:     -0.193D-01 0.142D-01 0.163D-01-0.557D-02 0.104D+00 0.558D+00
 Coeff:      0.333D+00
 Gap=     0.133 Goal=   None    Shift=    0.000
 RMSDP=8.87D-05 MaxDP=2.26D-03 DE=-7.50D-04 OVMax= 4.80D-03

 Cycle   8  Pass 1  IDiag  1:
 RMSU=  4.87D-05    CP:  9.71D-01  4.42D-01  7.35D-01  3.31D-01  9.23D-01
                    CP:  8.42D-01  6.41D-01
 E= -567.958178165138     Delta-E=       -0.000076841292 Rises=F Damp=F
 DIIS: error= 3.28D-04 at cycle   8 NSaved=   8.
 NSaved= 8 IEnMin= 8 EnMin= -567.958178165138     IErMin= 8 ErrMin= 3.28D-04
 ErrMax= 3.28D-04  0.00D+00 EMaxC= 1.00D-01 BMatC= 1.06D-05 BMatP= 8.79D-05
 IDIUse=3 WtCom= 9.97D-01 WtEn= 3.28D-03
 Coeff-Com: -0.409D-02 0.287D-02-0.225D-02-0.217D-03 0.831D-02 0.295D-01
 Coeff-Com:  0.980D-01 0.868D+00
 Coeff-En:   0.000D+00 0.000D+00 0.000D+00 0.000D+00 0.000D+00 0.000D+00
 Coeff-En:   0.695D-01 0.930D+00
 Coeff:     -0.407D-02 0.286D-02-0.225D-02-0.216D-03 0.828D-02 0.294D-01
 Coeff:      0.979D-01 0.868D+00
 Gap=     0.133 Goal=   None    Shift=    0.000
 RMSDP=3.14D-05 MaxDP=1.06D-03 DE=-7.68D-05 OVMax= 2.75D-03

 Cycle   9  Pass 1  IDiag  1:
 RMSU=  1.19D-05    CP:  9.71D-01  4.45D-01  7.35D-01  3.34D-01  9.31D-01
                    CP:  8.40D-01  7.65D-01  1.06D+00
 E= -567.958190788866     Delta-E=       -0.000012623728 Rises=F Damp=F
 DIIS: error= 4.39D-05 at cycle   9 NSaved=   9.
 NSaved= 9 IEnMin= 9 EnMin= -567.958190788866     IErMin= 9 ErrMin= 4.39D-05
 ErrMax= 4.39D-05  0.00D+00 EMaxC= 1.00D-01 BMatC= 3.03D-07 BMatP= 1.06D-05
 IDIUse=1 WtCom= 1.00D+00 WtEn= 0.00D+00
 Coeff-Com:  0.747D-03-0.370D-03-0.118D-02-0.132D-04-0.361D-02-0.571D-01
 Coeff-Com: -0.290D-01 0.274D+00 0.816D+00
 Coeff:      0.747D-03-0.370D-03-0.118D-02-0.132D-04-0.361D-02-0.571D-01
 Coeff:     -0.290D-01 0.274D+00 0.816D+00
 Gap=     0.133 Goal=   None    Shift=    0.000
 RMSDP=9.83D-06 MaxDP=2.78D-04 DE=-1.26D-05 OVMax= 5.18D-04

 Cycle  10  Pass 1  IDiag  1:
 RMSU=  4.85D-06    CP:  9.71D-01  4.45D-01  7.34D-01  3.35D-01  9.35D-01
                    CP:  8.38D-01  7.86D-01  1.17D+00  9.93D-01
 E= -567.958191080080     Delta-E=       -0.000000291215 Rises=F Damp=F
 DIIS: error= 3.22D-05 at cycle  10 NSaved=  10.
 NSaved=10 IEnMin=10 EnMin= -567.958191080080     IErMin=10 ErrMin= 3.22D-05
 ErrMax= 3.22D-05  0.00D+00 EMaxC= 1.00D-01 BMatC= 1.16D-07 BMatP= 3.03D-07
 IDIUse=1 WtCom= 1.00D+00 WtEn= 0.00D+00
 Coeff-Com:  0.486D-03-0.426D-03-0.122D-03-0.911D-04-0.848D-03-0.137D-01
 Coeff-Com: -0.152D-01 0.451D-01 0.284D+00 0.701D+00
 Coeff:      0.486D-03-0.426D-03-0.122D-03-0.911D-04-0.848D-03-0.137D-01
 Coeff:     -0.152D-01 0.451D-01 0.284D+00 0.701D+00
 Gap=     0.133 Goal=   None    Shift=    0.000
 RMSDP=1.87D-06 MaxDP=2.96D-05 DE=-2.91D-07 OVMax= 1.01D-04

 Cycle  11  Pass 1  IDiag  1:
 RMSU=  9.91D-07    CP:  9.71D-01  4.45D-01  7.34D-01  3.35D-01  9.36D-01
                    CP:  8.38D-01  7.86D-01  1.18D+00  1.07D+00  9.87D-01
 E= -567.958191154729     Delta-E=       -0.000000074648 Rises=F Damp=F
 DIIS: error= 1.91D-05 at cycle  11 NSaved=  11.
 NSaved=11 IEnMin=11 EnMin= -567.958191154729     IErMin=11 ErrMin= 1.91D-05
 ErrMax= 1.91D-05  0.00D+00 EMaxC= 1.00D-01 BMatC= 4.38D-08 BMatP= 1.16D-07
 IDIUse=1 WtCom= 1.00D+00 WtEn= 0.00D+00
 Coeff-Com:  0.880D-04-0.103D-03 0.758D-04-0.554D-04 0.999D-04 0.475D-02
 Coeff-Com:  0.192D-02-0.407D-02-0.912D-02 0.568D-01 0.950D+00
 Coeff:      0.880D-04-0.103D-03 0.758D-04-0.554D-04 0.999D-04 0.475D-02
 Coeff:      0.192D-02-0.407D-02-0.912D-02 0.568D-01 0.950D+00
 Gap=     0.133 Goal=   None    Shift=    0.000
 RMSDP=1.16D-06 MaxDP=3.47D-05 DE=-7.46D-08 OVMax= 6.42D-05

 Cycle  12  Pass 1  IDiag  1:
 RMSU=  3.32D-07    CP:  9.71D-01  4.45D-01  7.34D-01  3.35D-01  9.36D-01
                    CP:  8.38D-01  7.85D-01  1.18D+00  1.08D+00  1.06D+00
                    CP:  1.05D+00
 E= -567.958191192319     Delta-E=       -0.000000037591 Rises=F Damp=F
 DIIS: error= 4.71D-06 at cycle  12 NSaved=  12.
 NSaved=12 IEnMin=12 EnMin= -567.958191192319     IErMin=12 ErrMin= 4.71D-06
 ErrMax= 4.71D-06  0.00D+00 EMaxC= 1.00D-01 BMatC= 2.95D-09 BMatP= 4.38D-08
 IDIUse=1 WtCom= 1.00D+00 WtEn= 0.00D+00
 Coeff-Com: -0.847D-05-0.134D-06-0.576D-06-0.415D-05-0.214D-04 0.300D-02
 Coeff-Com:  0.269D-02-0.495D-02-0.368D-01-0.102D+00 0.238D+00 0.900D+00
 Coeff:     -0.847D-05-0.134D-06-0.576D-06-0.415D-05-0.214D-04 0.300D-02
 Coeff:      0.269D-02-0.495D-02-0.368D-01-0.102D+00 0.238D+00 0.900D+00
 Gap=     0.133 Goal=   None    Shift=    0.000
 RMSDP=4.14D-07 MaxDP=1.24D-05 DE=-3.76D-08 OVMax= 2.13D-05

 Cycle  13  Pass 1  IDiag  1:
 RMSU=  7.62D-08    CP:  9.71D-01  4.45D-01  7.34D-01  3.35D-01  9.36D-01
                    CP:  8.39D-01  7.85D-01  1.18D+00  1.09D+00  1.08D+00
                    CP:  1.17D+00  9.49D-01
 E= -567.958191195063     Delta-E=       -0.000000002743 Rises=F Damp=F
 DIIS: error= 2.75D-07 at cycle  13 NSaved=  13.
 NSaved=13 IEnMin=13 EnMin= -567.958191195063     IErMin=13 ErrMin= 2.75D-07
 ErrMax= 2.75D-07  0.00D+00 EMaxC= 1.00D-01 BMatC= 1.18D-11 BMatP= 2.95D-09
 IDIUse=1 WtCom= 1.00D+00 WtEn= 0.00D+00
 Coeff-Com: -0.322D-05 0.214D-05-0.393D-05 0.433D-06-0.141D-04 0.600D-03
 Coeff-Com:  0.490D-03-0.841D-03-0.750D-02-0.250D-01 0.422D-01 0.247D+00
 Coeff-Com:  0.743D+00
 Coeff:     -0.322D-05 0.214D-05-0.393D-05 0.433D-06-0.141D-04 0.600D-03
 Coeff:      0.490D-03-0.841D-03-0.750D-02-0.250D-01 0.422D-01 0.247D+00
 Coeff:      0.743D+00
 Gap=     0.133 Goal=   None    Shift=    0.000
 RMSDP=2.69D-08 MaxDP=6.16D-07 DE=-2.74D-09 OVMax= 8.89D-07

 Cycle  14  Pass 1  IDiag  1:
 RMSU=  1.48D-08    CP:  9.71D-01  4.45D-01  7.34D-01  3.35D-01  9.36D-01
                    CP:  8.39D-01  7.85D-01  1.18D+00  1.09D+00  1.08D+00
                    CP:  1.17D+00  9.75D-01  8.29D-01
 E= -567.958191195072     Delta-E=       -0.000000000009 Rises=F Damp=F
 DIIS: error= 1.18D-07 at cycle  14 NSaved=  14.
 NSaved=14 IEnMin=14 EnMin= -567.958191195072     IErMin=14 ErrMin= 1.18D-07
 ErrMax= 1.18D-07  0.00D+00 EMaxC= 1.00D-01 BMatC= 1.77D-12 BMatP= 1.18D-11
 IDIUse=1 WtCom= 1.00D+00 WtEn= 0.00D+00
 Coeff-Com:  0.319D-07 0.103D-06-0.773D-06 0.285D-06-0.120D-05-0.685D-04
 Coeff-Com: -0.901D-04-0.376D-04 0.554D-03 0.146D-02-0.393D-02-0.824D-02
 Coeff-Com:  0.890D-01 0.921D+00
 Coeff:      0.319D-07 0.103D-06-0.773D-06 0.285D-06-0.120D-05-0.685D-04
 Coeff:     -0.901D-04-0.376D-04 0.554D-03 0.146D-02-0.393D-02-0.824D-02
 Coeff:      0.890D-01 0.921D+00
 Gap=     0.133 Goal=   None    Shift=    0.000
 RMSDP=1.15D-08 MaxDP=2.97D-07 DE=-8.87D-12 OVMax= 7.04D-07

 Cycle  15  Pass 1  IDiag  1:
 RMSU=  3.60D-09    CP:  9.71D-01  4.45D-01  7.34D-01  3.35D-01  9.36D-01
                    CP:  8.39D-01  7.85D-01  1.18D+00  1.09D+00  1.08D+00
                    CP:  1.17D+00  9.75D-01  8.61D-01  9.87D-01
 E= -567.958191195065     Delta-E=        0.000000000007 Rises=F Damp=F
 DIIS: error= 1.38D-08 at cycle  15 NSaved=  15.
 NSaved=15 IEnMin=14 EnMin= -567.958191195072     IErMin=15 ErrMin= 1.38D-08
 ErrMax= 1.38D-08  0.00D+00 EMaxC= 1.00D-01 BMatC= 2.48D-14 BMatP= 1.77D-12
 IDIUse=1 WtCom= 1.00D+00 WtEn= 0.00D+00
 Coeff-Com:  0.108D-07-0.467D-07-0.172D-07 0.401D-07 0.430D-06-0.226D-04
 Coeff-Com: -0.201D-04 0.140D-04 0.255D-03 0.909D-03-0.130D-02-0.766D-02
 Coeff-Com: -0.939D-02 0.101D+00 0.916D+00
 Coeff:      0.108D-07-0.467D-07-0.172D-07 0.401D-07 0.430D-06-0.226D-04
 Coeff:     -0.201D-04 0.140D-04 0.255D-03 0.909D-03-0.130D-02-0.766D-02
 Coeff:     -0.939D-02 0.101D+00 0.916D+00
 Gap=     0.133 Goal=   None    Shift=    0.000
 RMSDP=1.42D-09 MaxDP=2.86D-08 DE= 6.59D-12 OVMax= 8.79D-08

 SCF Done:  E(RB3LYP) =  -567.958191195     A.U. after   15 cycles
            NFock= 15  Conv=0.14D-08     -V/T= 2.0035
 KE= 5.659910103432D+02 PE=-1.656257654103D+03 EE= 3.661134153204D+02
 Leave Link  502 at Mon Sep 21 22:14:48 2015, MaxMem=    33554432 cpu:        47.4
 (Enter /group/hpc-share/gaussian/2009D/g09/l601.exe)
 Copying SCF densities to generalized density rwf, IOpCl= 0 IROHF=0.

 **********************************************************************

            Population analysis using the SCF density.

 **********************************************************************

 Orbital symmetries:
       Occupied  (A') (A') (A') (A') (A') (A') (A") (A') (A') (A')
                 (A') (A') (A') (A") (A') (A') (A") (A') (A") (A')
       Virtual   (A") (A') (A') (A') (A") (A') (A') (A') (A') (A")
                 (A") (A') (A') (A') (A") (A') (A") (A') (A') (A")
                 (A') (A') (A") (A') (A') (A') (A') (A') (A") (A")
                 (A') (A') (A") (A') (A") (A') (A') (A") (A') (A')
                 (A") (A') (A') (A") (A') (A') (A") (A") (A') (A')
                 (A") (A') (A") (A') (A') (A") (A') (A') (A") (A')
                 (A") (A') (A') (A") (A') (A') (A") (A') (A") (A')
                 (A') (A') (A") (A') (A") (A') (A") (A') (A') (A")
                 (A') (A') (A") (A') (A') (A') (A") (A") (A') (A')
                 (A") (A') (A') (A') (A") (A') (A') (A') (A") (A')
                 (A") (A') (A')
 The electronic state is 1-A'.
 Alpha  occ. eigenvalues --  -88.94688 -19.18206 -14.48469 -10.25790  -8.00984
 Alpha  occ. eigenvalues --   -5.97414  -5.96678  -5.96656  -1.05871  -0.87416
 Alpha  occ. eigenvalues --   -0.78742  -0.61446  -0.49627  -0.48939  -0.48741
 Alpha  occ. eigenvalues --   -0.42493  -0.41865  -0.32023  -0.27984  -0.25827
 Alpha virt. eigenvalues --   -0.12546  -0.06842  -0.01302   0.01102   0.01425
 Alpha virt. eigenvalues --    0.02075   0.05268   0.06811   0.07251   0.07337
 Alpha virt. eigenvalues --    0.08336   0.08930   0.09919   0.11491   0.12345
 Alpha virt. eigenvalues --    0.13674   0.15966   0.16076   0.16483   0.17434
 Alpha virt. eigenvalues --    0.18503   0.22098   0.23340   0.24315   0.25639
 Alpha virt. eigenvalues --    0.26489   0.27743   0.30345   0.30543   0.32392
 Alpha virt. eigenvalues --    0.33048   0.37065   0.37649   0.39956   0.40195
 Alpha virt. eigenvalues --    0.41586   0.45283   0.47135   0.49122   0.50456
 Alpha virt. eigenvalues --    0.51423   0.53911   0.55306   0.59747   0.60532
 Alpha virt. eigenvalues --    0.64217   0.66429   0.68734   0.70001   0.75086
 Alpha virt. eigenvalues --    0.78004   0.79946   0.80839   0.82627   0.85261
 Alpha virt. eigenvalues --    0.87247   0.88926   0.93479   0.94947   0.96287
 Alpha virt. eigenvalues --    0.99499   0.99681   1.01628   1.03488   1.06316
 Alpha virt. eigenvalues --    1.08835   1.14227   1.17925   1.18139   1.21082
 Alpha virt. eigenvalues --    1.28153   1.32131   1.38934   1.39137   1.54388
 Alpha virt. eigenvalues --    1.55909   1.57107   1.61119   1.70187   1.77709
 Alpha virt. eigenvalues --    1.80040   1.82034   1.88041   1.88293   2.02449
 Alpha virt. eigenvalues --    2.08334   2.18421   2.18857   2.19320   2.22056
 Alpha virt. eigenvalues --    2.28098   2.31423   2.34160   2.48467   2.54383
 Alpha virt. eigenvalues --    2.55437   2.61223   3.11897   3.25106   3.31314
 Alpha virt. eigenvalues --    3.37690   3.40866   3.56815
          Condensed to atoms (all electrons):
               1          2          3          4          5          6
     1  O    8.744560  -0.132784  -0.056911  -0.036758  -0.004215   0.011057
     2  N   -0.132784   7.578817  -0.291522   0.064215  -0.018791  -0.007587
     3  S   -0.056911  -0.291522  15.976114   0.091966  -0.173965  -0.064464
     4  C   -0.036758   0.064215   0.091966   4.324490   0.378002   0.261985
     5  H   -0.004215  -0.018791  -0.173965   0.378002   1.310651  -0.174513
     6  H    0.011057  -0.007587  -0.064464   0.261985  -0.174513   1.382125
     7  H    0.011057  -0.007587  -0.064464   0.261985  -0.174513  -0.221634
               7
     1  O    0.011057
     2  N   -0.007587
     3  S   -0.064464
     4  C    0.261985
     5  H   -0.174513
     6  H   -0.221634
     7  H    1.382125
 Mulliken charges:
               1
     1  O   -0.536006
     2  N   -0.184761
     3  S    0.583245
     4  C    0.654115
     5  H   -0.142656
     6  H   -0.186969
     7  H   -0.186969
 Sum of Mulliken charges =   0.00000
 Mulliken charges with hydrogens summed into heavy atoms:
               1
     1  O   -0.536006
     2  N   -0.184761
     3  S    0.583245
     4  C    0.137521
 Electronic spatial extent (au):  <R**2>=            371.8837
 Charge=              0.0000 electrons
 Dipole moment (field-independent basis, Debye):
    X=              4.0493    Y=              2.2987    Z=              0.0000  Tot=              4.6563
 Quadrupole moment (field-independent basis, Debye-Ang):
   XX=            -28.5417   YY=            -35.6724   ZZ=            -30.1812
   XY=             -0.0280   XZ=              0.0000   YZ=              0.0000
 Traceless Quadrupole moment (field-independent basis, Debye-Ang):
   XX=              2.9234   YY=             -4.2073   ZZ=              1.2839
   XY=             -0.0280   XZ=              0.0000   YZ=              0.0000
 Octapole moment (field-independent basis, Debye-Ang**2):
  XXX=              9.4324  YYY=              4.7406  ZZZ=              0.0000  XYY=              8.3185
  XXY=              5.4119  XXZ=              0.0000  XZZ=              1.0723  YZZ=             -2.2905
  YYZ=              0.0000  XYZ=              0.0000
 Hexadecapole moment (field-independent basis, Debye-Ang**3):
 XXXX=           -258.8081 YYYY=           -198.1877 ZZZZ=            -39.8928 XXXY=            -50.4763
 XXXZ=              0.0000 YYYX=            -56.5311 YYYZ=              0.0000 ZZZX=              0.0000
 ZZZY=              0.0000 XXYY=            -74.3132 XXZZ=            -47.6297 YYZZ=            -39.1869
 XXYZ=              0.0000 YYXZ=              0.0000 ZZXY=            -18.8924
 N-N= 1.561950372443D+02 E-N=-1.656257654137D+03  KE= 5.659910103432D+02
 Symmetry A'   KE= 5.211924856722D+02
 Symmetry A"   KE= 4.479852467098D+01
 No NMR shielding tensors so no spin-rotation constants.
 Leave Link  601 at Mon Sep 21 22:14:48 2015, MaxMem=    33554432 cpu:         1.8
 (Enter /group/hpc-share/gaussian/2009D/g09/l701.exe)
 Compute integral first derivatives.
 ... and contract with generalized density number  0.
 Leave Link  701 at Mon Sep 21 22:14:49 2015, MaxMem=    33554432 cpu:         1.9
 (Enter /group/hpc-share/gaussian/2009D/g09/l702.exe)
 L702 exits ... SP integral derivatives will be done elsewhere.
 Leave Link  702 at Mon Sep 21 22:14:49 2015, MaxMem=    33554432 cpu:         0.1
 (Enter /group/hpc-share/gaussian/2009D/g09/l703.exe)
 Compute integral first derivatives, UseDBF=F ICtDFT=           0.
 Integral derivatives from FoFJK, PRISM(SPDF).
 Calling FoFJK, ICntrl=      2127 FMM=F ISym2X=1 I1Cent= 0 IOpClX= 0 NMat=1 NMatS=1 NMatT=0.
 FoFJK:  IHMeth= 1 ICntrl=    2127 DoSepK=F KAlg= 0 I1Cent=   0 FoldK=F
 IRaf=         0 NMat=   1 IRICut=       1 DoRegI=T DoRafI=F ISym2E= 1.
 FoFCou: FMM=F IPFlag=           0 FMFlag=      100000 FMFlg1=         800
         NFxFlg=           0 DoJE=F BraDBF=F KetDBF=F FulRan=T
         wScrn=  0.000000 ICntrl=    2127 IOpCl=  0 I1Cent=           0 NGrid=           0
         NMat0=    1 NMatS0=      1 NMatT0=    0 NMatD0=    1 NMtDS0=    0 NMtDT0=    0
 Petite list used in FoFCou.
 Leave Link  703 at Mon Sep 21 22:14:50 2015, MaxMem=    33554432 cpu:         8.7
 (Enter /group/hpc-share/gaussian/2009D/g09/l716.exe)
 Dipole        = 1.59310881D+00 9.04380585D-01-2.22044605D-16
 ***** Axes restored to original set *****
 -------------------------------------------------------------------
 Center     Atomic                   Forces (Hartrees/Bohr)
 Number     Number              X              Y              Z
 -------------------------------------------------------------------
      1        8          -0.030363012    0.000000000    0.101470509
      2        7           0.017064179    0.000000000   -0.178053108
      3       16          -0.026073303    0.000000000    0.144685901
      4        6           0.032019718    0.000000000   -0.065642789
      5        1          -0.008017949    0.000000000    0.010623639
      6        1           0.007685184   -0.003975278   -0.006542076
      7        1           0.007685184    0.003975278   -0.006542076
 -------------------------------------------------------------------
 Cartesian Forces:  Max     0.178053108 RMS     0.057970770
 Leave Link  716 at Mon Sep 21 22:14:50 2015, MaxMem=    33554432 cpu:         0.2
 (Enter /group/hpc-share/gaussian/2009D/g09/l103.exe)

 GradGradGradGradGradGradGradGradGradGradGradGradGradGradGradGradGradGrad
 Berny optimization.
 FormGI is forming the generalized inverse of G from B-inverse, IUseBI=4.
 Internal  Forces:  Max     0.127748460 RMS     0.046645330
 Search for a local minimum.
 Step number   1 out of a maximum of   28
 All quantities printed in internal units (Hartrees-Bohrs-Radians)
 RMS Force = .46645D-01 SwitMx=.10000D-02 MixMth= 1
 Mixed Optimization -- RFO/linear search
 Second derivative matrix not updated -- first step.
 The second derivative matrix:
                          R1        R2        R3        R4        R5
           R1           0.45621
           R2           0.00000   0.46672
           R3           0.00000   0.00000   0.34713
           R4           0.00000   0.00000   0.00000   0.34928
           R5           0.00000   0.00000   0.00000   0.00000   0.34928
           R6           0.00000   0.00000   0.00000   0.00000   0.00000
           A1           0.00000   0.00000   0.00000   0.00000   0.00000
           A2           0.00000   0.00000   0.00000   0.00000   0.00000
           A3           0.00000   0.00000   0.00000   0.00000   0.00000
           A4           0.00000   0.00000   0.00000   0.00000   0.00000
           A5           0.00000   0.00000   0.00000   0.00000   0.00000
           A6           0.00000   0.00000   0.00000   0.00000   0.00000
           A7           0.00000   0.00000   0.00000   0.00000   0.00000
           A8           0.00000   0.00000   0.00000   0.00000   0.00000
           D1           0.00000   0.00000   0.00000   0.00000   0.00000
           D2           0.00000   0.00000   0.00000   0.00000   0.00000
           D3           0.00000   0.00000   0.00000   0.00000   0.00000
           D4           0.00000   0.00000   0.00000   0.00000   0.00000
                          R6        A1        A2        A3        A4
           R6           0.34928
           A1           0.00000   0.25000
           A2           0.00000   0.00000   0.25000
           A3           0.00000   0.00000   0.00000   0.16000
           A4           0.00000   0.00000   0.00000   0.00000   0.16000
           A5           0.00000   0.00000   0.00000   0.00000   0.00000
           A6           0.00000   0.00000   0.00000   0.00000   0.00000
           A7           0.00000   0.00000   0.00000   0.00000   0.00000
           A8           0.00000   0.00000   0.00000   0.00000   0.00000
           D1           0.00000   0.00000   0.00000   0.00000   0.00000
           D2           0.00000   0.00000   0.00000   0.00000   0.00000
           D3           0.00000   0.00000   0.00000   0.00000   0.00000
           D4           0.00000   0.00000   0.00000   0.00000   0.00000
                          A5        A6        A7        A8        D1
           A5           0.16000
           A6           0.00000   0.16000
           A7           0.00000   0.00000   0.16000
           A8           0.00000   0.00000   0.00000   0.16000
           D1           0.00000   0.00000   0.00000   0.00000   0.02288
           D2           0.00000   0.00000   0.00000   0.00000   0.00000
           D3           0.00000   0.00000   0.00000   0.00000   0.00000
           D4           0.00000   0.00000   0.00000   0.00000   0.00000
                          D2        D3        D4
           D2           0.01561
           D3           0.00000   0.01561
           D4           0.00000   0.00000   0.01561
 ITU=  0
     Eigenvalues ---    0.01561   0.02288   0.10446   0.10446   0.16000
     Eigenvalues ---    0.16000   0.16000   0.25000   0.25000   0.34713
     Eigenvalues ---    0.34928   0.34928   0.34928   0.45621   0.46672
 RFO step:  Lambda=-9.85856200D-02 EMin= 1.56082885D-02
 Linear search not attempted -- first point.
 Maximum step size (   0.300) exceeded in Quadratic search.
    -- Step size scaled by   0.590
 Iteration  1 RMS(Cart)=  0.07038198 RMS(Int)=  0.00776172
 Iteration  2 RMS(Cart)=  0.02132963 RMS(Int)=  0.00026539
 Iteration  3 RMS(Cart)=  0.00010133 RMS(Int)=  0.00025149
 Iteration  4 RMS(Cart)=  0.00000001 RMS(Int)=  0.00025149
 ITry= 1 IFail=0 DXMaxC= 2.70D-01 DCOld= 1.00D+10 DXMaxT= 3.00D-01 DXLimC= 3.00D+00 Rises=F
 ClnCor:  largest displacement from symmetrization is 3.45D-09 for atom     1.
 Variable       Old X    -DE/DX   Delta X   Delta X   Delta X     New X
                                 (Linear)    (Quad)   (Total)
    R1        2.64562  -0.10147   0.00000  -0.10789  -0.10789   2.53772
    R2        3.07080   0.03806   0.00000   0.03972   0.03972   3.11053
    R3        3.23143   0.05923   0.00000   0.07838   0.07838   3.30981
    R4        2.05791   0.00337   0.00000   0.00444   0.00444   2.06235
    R5        2.05791   0.00813   0.00000   0.01070   0.01070   2.06861
    R6        2.05791   0.00813   0.00000   0.01070   0.01070   2.06861
    A1        1.91063   0.08033   0.00000   0.13595   0.13595   2.04658
    A2        2.47357  -0.12775   0.00000  -0.21618  -0.21618   2.25739
    A3        1.91063  -0.02422   0.00000  -0.05699  -0.05680   1.85384
    A4        1.91063   0.01277   0.00000   0.03001   0.02980   1.94044
    A5        1.91063   0.01277   0.00000   0.03001   0.02980   1.94044
    A6        1.91063   0.00226   0.00000   0.00344   0.00363   1.91426
    A7        1.91063   0.00226   0.00000   0.00344   0.00363   1.91426
    A8        1.91063  -0.00585   0.00000  -0.00990  -0.01043   1.90020
    D1        0.00000   0.00000   0.00000   0.00000   0.00000   0.00000
    D2        3.14159   0.00000   0.00000   0.00000   0.00000   3.14159
    D3       -1.04720  -0.00424   0.00000  -0.01231  -0.01289  -1.06009
    D4        1.04720   0.00424   0.00000   0.01231   0.01289   1.06009
         Item               Value     Threshold  Converged?
 Maximum Force            0.127748     0.000450     NO 
 RMS     Force            0.046645     0.000300     NO 
 Maximum Displacement     0.269870     0.001800     NO 
 RMS     Displacement     0.083999     0.001200     NO 
 Predicted change in Energy=-4.545481D-02
 Lowest energy point so far.  Saving SCF results.
 GradGradGradGradGradGradGradGradGradGradGradGradGradGradGradGradGradGrad

 Leave Link  103 at Mon Sep 21 22:14:50 2015, MaxMem=    33554432 cpu:         0.1
 (Enter /group/hpc-share/gaussian/2009D/g09/l202.exe)
                          Input orientation:                          
 ---------------------------------------------------------------------
 Center     Atomic      Atomic             Coordinates (Angstroms)
 Number     Number       Type             X           Y           Z
 ---------------------------------------------------------------------
      1          8           0        0.051991    0.000000   -0.007089
      2          7           0        0.056818    0.000000    1.335807
      3         16           0        1.522722    0.000000    2.084476
      4          6           0        3.127626    0.000000    1.383079
      5          1           0        3.826560    0.000000    2.221254
      6          1           0        3.290209   -0.890480    0.767529
      7          1           0        3.290209    0.890480    0.767529
 ---------------------------------------------------------------------
                    Distance matrix (angstroms):
                    1          2          3          4          5
     1  O    0.000000
     2  N    1.342905   0.000000
     3  S    2.556891   1.646019   0.000000
     4  C    3.375219   3.071172   1.751479   0.000000
     5  H    4.383250   3.872334   2.307895   1.091350   0.000000
     6  H    3.446599   3.401575   2.377249   1.094664   1.787161
     7  H    3.446599   3.401575   2.377249   1.094664   1.787161
                    6          7
     6  H    0.000000
     7  H    1.780960   0.000000
 Stoichiometry    CH3NOS
 Framework group  CS[SG(CHNOS),X(H2)]
 Deg. of freedom    10
 Full point group                 CS      NOp   2
 RotChk:  IX=0 Diff= 9.37D-02
 Largest Abelian subgroup         CS      NOp   2
 Largest concise Abelian subgroup CS      NOp   2
                         Standard orientation:                         
 ---------------------------------------------------------------------
 Center     Atomic      Atomic             Coordinates (Angstroms)
 Number     Number       Type             X           Y           Z
 ---------------------------------------------------------------------
      1          8           0       -0.967404   -1.631338    0.000000
      2          7           0       -1.262094   -0.321166    0.000000
      3         16           0        0.000000    0.735479    0.000000
      4          6           0        1.720885    0.409545    0.000000
      5          1           0        2.215357    1.382450    0.000000
      6          1           0        2.016610   -0.154264    0.890480
      7          1           0        2.016610   -0.154264   -0.890480
 ---------------------------------------------------------------------
 Rotational constants (GHZ):     14.8577402      4.2144603      3.3528012
 Leave Link  202 at Mon Sep 21 22:14:51 2015, MaxMem=    33554432 cpu:         0.0
 (Enter /group/hpc-share/gaussian/2009D/g09/l301.exe)
 Standard basis: Aug-CC-pVDZ (5D, 7F)
 Ernie: Thresh=  0.10000D-02 Tol=  0.10000D-05 Strict=F.
 Ernie:  16 primitive shells out of 149 were deleted.
 There are    91 symmetry adapted cartesian basis functions of A'  symmetry.
 There are    40 symmetry adapted cartesian basis functions of A"  symmetry.
 There are    83 symmetry adapted basis functions of A'  symmetry.
 There are    40 symmetry adapted basis functions of A"  symmetry.
   123 basis functions,   243 primitive gaussians,   131 cartesian basis functions
    20 alpha electrons       20 beta electrons
       nuclear repulsion energy       155.2802823311 Hartrees.
 IExCor=  402 DFT=T Ex+Corr=B3LYP ExCW=0 ScaHFX=  0.200000
 ScaDFX=  0.800000  0.720000  1.000000  0.810000 ScalE2=  1.000000  1.000000
 IRadAn=      0 IRanWt=     -1 IRanGd=            0 ICorTp=0 IEmpDi=  4
 NAtoms=    7 NActive=    7 NUniq=    6 SFac= 1.36D+00 NAtFMM=   60 NAOKFM=F Big=F
 Integral buffers will be    131072 words long.
 Raffenetti 2 integral format.
 Two-electron integral symmetry is turned on.
 Leave Link  301 at Mon Sep 21 22:14:52 2015, MaxMem=    33554432 cpu:         0.5
 (Enter /group/hpc-share/gaussian/2009D/g09/l302.exe)
 NPDir=0 NMtPBC=     1 NCelOv=     1 NCel=       1 NClECP=     1 NCelD=      1
         NCelK=      1 NCelE2=     1 NClLst=     1 CellRange=     0.0.
 One-electron integrals computed using PRISM.
 One-electron integral symmetry used in STVInt
 NBasis=   123 RedAO= T EigKep=  5.05D-04  NBF=    83    40
 NBsUse=   123 1.00D-06 EigRej= -1.00D+00 NBFU=    83    40
 Precomputing XC quadrature grid using
 IXCGrd= 4 IRadAn=           0 IRanWt=          -1 IRanGd=           0 AccXCQ= 0.00D+00.
 Generated NRdTot=       0 NPtTot=           0 NUsed=           0 NTot=          32
 NSgBfM=   131   131   131   131   131 MxSgAt=     7 MxSgA2=     7.
 Leave Link  302 at Mon Sep 21 22:14:52 2015, MaxMem=    33554432 cpu:         1.7
 (Enter /group/hpc-share/gaussian/2009D/g09/l303.exe)
 DipDrv:  MaxL=1.
 Leave Link  303 at Mon Sep 21 22:14:52 2015, MaxMem=    33554432 cpu:         0.3
 (Enter /group/hpc-share/gaussian/2009D/g09/l401.exe)
 Initial guess from the checkpoint file:  "cis-mesno.chk"
 B after Tr=     0.000000    0.000000    0.000000
         Rot=    0.999705    0.000000    0.000000    0.024290 Ang=   2.78 deg.
 Guess basis will be translated and rotated to current coordinates.
 JPrj=2 DoOrth=T DoCkMO=T.
 Initial guess orbital symmetries:
       Occupied  (A') (A') (A') (A') (A') (A') (A") (A') (A') (A')
                 (A') (A') (A') (A") (A') (A') (A") (A') (A") (A')
       Virtual   (A') (A') (A') (A') (A') (A') (A') (A') (A') (A')
                 (A') (A') (A') (A') (A') (A') (A') (A') (A') (A')
                 (A') (A') (A') (A') (A') (A') (A') (A') (A') (A')
                 (A') (A') (A') (A') (A') (A') (A') (A') (A') (A')
                 (A') (A') (A') (A') (A') (A') (A') (A') (A') (A')
                 (A') (A') (A') (A') (A') (A') (A') (A') (A') (A')
                 (A') (A') (A') (A') (A') (A') (A') (A") (A") (A")
                 (A") (A") (A") (A") (A") (A") (A") (A") (A") (A")
                 (A") (A") (A") (A") (A") (A") (A") (A") (A") (A")
                 (A") (A") (A") (A") (A") (A") (A") (A") (A") (A")
                 (A") (A") (A")
 The electronic state of the initial guess is 1-A'.
 Generating alternative initial guess.
 ExpMin= 2.97D-02 ExpMax= 1.11D+05 ExpMxC= 1.07D+03 IAcc=3 IRadAn=         5 AccDes= 0.00D+00
 Harris functional with IExCor=  402 and IRadAn=       5 diagonalized for initial guess.
 HarFok:  IExCor=  402 AccDes= 0.00D+00 IRadAn=         5 IDoV= 1 UseB2=F ITyADJ=14
 ICtDFT=  3500011 ScaDFX=  1.000000  1.000000  1.000000  1.000000
 FoFCou: FMM=F IPFlag=           0 FMFlag=      100000 FMFlg1=           0
         NFxFlg=           0 DoJE=T BraDBF=F KetDBF=T FulRan=T
         wScrn=  0.000000 ICntrl=     500 IOpCl=  0 I1Cent=   200000004 NGrid=           0
         NMat0=    1 NMatS0=      1 NMatT0=    0 NMatD0=    1 NMtDS0=    0 NMtDT0=    0
 Petite list used in FoFCou.
 Harris En= -567.988094919824    
 Leave Link  401 at Mon Sep 21 22:14:53 2015, MaxMem=    33554432 cpu:         3.3
 (Enter /group/hpc-share/gaussian/2009D/g09/l502.exe)
 Closed shell SCF:
 Using DIIS extrapolation, IDIIS=  1040.
 Integral symmetry usage will be decided dynamically.
 IVT=       72237 IEndB=       72237 NGot=    33554432 MDV=    33516128
 LenX=    33516128 LenY=    33498526
 Requested convergence on RMS density matrix=1.00D-08 within 128 cycles.
 Requested convergence on MAX density matrix=1.00D-06.
 Requested convergence on             energy=1.00D-06.
 No special actions if energy rises.
 Fock matrices will be formed incrementally for  20 cycles.

 Cycle   1  Pass 1  IDiag  1:
 FoFJK:  IHMeth= 1 ICntrl=       0 DoSepK=F KAlg= 0 I1Cent=   0 FoldK=F
 IRaf= 990000000 NMat=   1 IRICut=       1 DoRegI=T DoRafI=F ISym2E= 1.
 FoFCou: FMM=F IPFlag=           0 FMFlag=      100000 FMFlg1=           0
         NFxFlg=           0 DoJE=F BraDBF=F KetDBF=F FulRan=T
         wScrn=  0.000000 ICntrl=       0 IOpCl=  0 I1Cent=           0 NGrid=           0
         NMat0=    1 NMatS0=      1 NMatT0=    0 NMatD0=    1 NMtDS0=    0 NMtDT0=    0
 Petite list used in FoFCou.
 E= -567.991851236313    
 DIIS: error= 8.81D-03 at cycle   1 NSaved=   1.
 NSaved= 1 IEnMin= 1 EnMin= -567.991851236313     IErMin= 1 ErrMin= 8.81D-03
 ErrMax= 8.81D-03  0.00D+00 EMaxC= 1.00D-01 BMatC= 1.49D-02 BMatP= 1.49D-02
 IDIUse=3 WtCom= 9.12D-01 WtEn= 8.81D-02
 Coeff-Com:  0.100D+01
 Coeff-En:   0.100D+01
 Coeff:      0.100D+01
 Gap=     0.397 Goal=   None    Shift=    0.000
 GapD=    0.397 DampG=1.000 DampE=1.000 DampFc=1.0000 IDamp=-1.
 RMSDP=2.11D-03 MaxDP=2.85D-02              OVMax= 3.66D-02

 Cycle   2  Pass 1  IDiag  1:
 RMSU=  2.11D-03    CP:  9.96D-01
 E= -568.004194201364     Delta-E=       -0.012342965051 Rises=F Damp=F
 DIIS: error= 3.17D-03 at cycle   2 NSaved=   2.
 NSaved= 2 IEnMin= 2 EnMin= -568.004194201364     IErMin= 2 ErrMin= 3.17D-03
 ErrMax= 3.17D-03  0.00D+00 EMaxC= 1.00D-01 BMatC= 1.48D-03 BMatP= 1.49D-02
 IDIUse=3 WtCom= 9.68D-01 WtEn= 3.17D-02
 Coeff-Com:  0.101D+00 0.899D+00
 Coeff-En:   0.000D+00 0.100D+01
 Coeff:      0.983D-01 0.902D+00
 Gap=     0.139 Goal=   None    Shift=    0.000
 RMSDP=7.92D-04 MaxDP=2.29D-02 DE=-1.23D-02 OVMax= 3.47D-02

 Cycle   3  Pass 1  IDiag  1:
 RMSU=  7.87D-04    CP:  9.95D-01  9.61D-01
 E= -568.000045157617     Delta-E=        0.004149043747 Rises=F Damp=F
 DIIS: error= 7.10D-03 at cycle   3 NSaved=   3.
 NSaved= 3 IEnMin= 2 EnMin= -568.004194201364     IErMin= 2 ErrMin= 3.17D-03
 ErrMax= 7.10D-03  0.00D+00 EMaxC= 1.00D-01 BMatC= 5.95D-03 BMatP= 1.48D-03
 IDIUse=3 WtCom= 1.06D-01 WtEn= 8.94D-01
 Coeff-Com: -0.688D-02 0.676D+00 0.331D+00
 Coeff-En:   0.000D+00 0.741D+00 0.259D+00
 Coeff:     -0.730D-03 0.734D+00 0.267D+00
 Gap=     0.142 Goal=   None    Shift=    0.000
 RMSDP=4.34D-04 MaxDP=1.39D-02 DE= 4.15D-03 OVMax= 2.18D-02

 Cycle   4  Pass 1  IDiag  1:
 RMSU=  1.27D-04    CP:  9.96D-01  1.01D+00  4.91D-01
 E= -568.005464766831     Delta-E=       -0.005419609214 Rises=F Damp=F
 DIIS: error= 1.13D-03 at cycle   4 NSaved=   4.
 NSaved= 4 IEnMin= 4 EnMin= -568.005464766831     IErMin= 4 ErrMin= 1.13D-03
 ErrMax= 1.13D-03  0.00D+00 EMaxC= 1.00D-01 BMatC= 2.06D-04 BMatP= 1.48D-03
 IDIUse=3 WtCom= 9.89D-01 WtEn= 1.13D-02
 Coeff-Com: -0.968D-02 0.295D+00 0.233D-01 0.692D+00
 Coeff-En:   0.000D+00 0.125D+00 0.000D+00 0.875D+00
 Coeff:     -0.957D-02 0.293D+00 0.230D-01 0.694D+00
 Gap=     0.143 Goal=   None    Shift=    0.000
 RMSDP=1.16D-04 MaxDP=3.62D-03 DE=-5.42D-03 OVMax= 4.29D-03

 Cycle   5  Pass 1  IDiag  1:
 RMSU=  6.29D-05    CP:  9.96D-01  1.02D+00  3.75D-01  7.82D-01
 E= -568.005658823429     Delta-E=       -0.000194056598 Rises=F Damp=F
 DIIS: error= 1.41D-04 at cycle   5 NSaved=   5.
 NSaved= 5 IEnMin= 5 EnMin= -568.005658823429     IErMin= 5 ErrMin= 1.41D-04
 ErrMax= 1.41D-04  0.00D+00 EMaxC= 1.00D-01 BMatC= 4.38D-06 BMatP= 2.06D-04
 IDIUse=3 WtCom= 9.99D-01 WtEn= 1.41D-03
 Coeff-Com: -0.317D-02 0.700D-01-0.206D-01 0.317D+00 0.636D+00
 Coeff-En:   0.000D+00 0.000D+00 0.000D+00 0.000D+00 0.100D+01
 Coeff:     -0.316D-02 0.699D-01-0.206D-01 0.317D+00 0.637D+00
 Gap=     0.143 Goal=   None    Shift=    0.000
 RMSDP=2.22D-05 MaxDP=6.42D-04 DE=-1.94D-04 OVMax= 9.33D-04

 Cycle   6  Pass 1  IDiag  1:
 RMSU=  1.58D-05    CP:  9.96D-01  1.02D+00  3.72D-01  8.54D-01  8.22D-01
 E= -568.005662998905     Delta-E=       -0.000004175476 Rises=F Damp=F
 DIIS: error= 6.64D-05 at cycle   6 NSaved=   6.
 NSaved= 6 IEnMin= 6 EnMin= -568.005662998905     IErMin= 6 ErrMin= 6.64D-05
 ErrMax= 6.64D-05  0.00D+00 EMaxC= 1.00D-01 BMatC= 7.45D-07 BMatP= 4.38D-06
 IDIUse=1 WtCom= 1.00D+00 WtEn= 0.00D+00
 Coeff-Com: -0.110D-02 0.142D-01-0.128D-01 0.114D+00 0.357D+00 0.529D+00
 Coeff:     -0.110D-02 0.142D-01-0.128D-01 0.114D+00 0.357D+00 0.529D+00
 Gap=     0.143 Goal=   None    Shift=    0.000
 RMSDP=1.14D-05 MaxDP=3.90D-04 DE=-4.18D-06 OVMax= 8.34D-04

 Cycle   7  Pass 1  IDiag  1:
 RMSU=  7.32D-06    CP:  9.96D-01  1.02D+00  3.79D-01  8.62D-01  8.31D-01
                    CP:  5.84D-01
 E= -568.005663064893     Delta-E=       -0.000000065989 Rises=F Damp=F
 DIIS: error= 9.99D-05 at cycle   7 NSaved=   7.
 NSaved= 7 IEnMin= 7 EnMin= -568.005663064893     IErMin= 6 ErrMin= 6.64D-05
 ErrMax= 9.99D-05  0.00D+00 EMaxC= 1.00D-01 BMatC= 8.10D-07 BMatP= 7.45D-07
 IDIUse=1 WtCom= 1.00D+00 WtEn= 0.00D+00
 Coeff-Com: -0.183D-04-0.843D-02-0.847D-02 0.271D-01 0.186D+00 0.463D+00
 Coeff-Com:  0.341D+00
 Coeff:     -0.183D-04-0.843D-02-0.847D-02 0.271D-01 0.186D+00 0.463D+00
 Coeff:      0.341D+00
 Gap=     0.143 Goal=   None    Shift=    0.000
 RMSDP=7.06D-06 MaxDP=2.77D-04 DE=-6.60D-08 OVMax= 5.64D-04

 Cycle   8  Pass 1  IDiag  1:
 RMSU=  2.56D-06    CP:  9.96D-01  1.02D+00  3.76D-01  8.65D-01  8.40D-01
                    CP:  7.29D-01  2.89D-01
 E= -568.005663794778     Delta-E=       -0.000000729885 Rises=F Damp=F
 DIIS: error= 1.38D-05 at cycle   8 NSaved=   8.
 NSaved= 8 IEnMin= 8 EnMin= -568.005663794778     IErMin= 8 ErrMin= 1.38D-05
 ErrMax= 1.38D-05  0.00D+00 EMaxC= 1.00D-01 BMatC= 1.75D-08 BMatP= 7.45D-07
 IDIUse=1 WtCom= 1.00D+00 WtEn= 0.00D+00
 Coeff-Com:  0.650D-04-0.388D-02-0.159D-02-0.963D-03 0.363D-01 0.985D-01
 Coeff-Com:  0.170D+00 0.702D+00
 Coeff:      0.650D-04-0.388D-02-0.159D-02-0.963D-03 0.363D-01 0.985D-01
 Coeff:      0.170D+00 0.702D+00
 Gap=     0.143 Goal=   None    Shift=    0.000
 RMSDP=1.00D-06 MaxDP=2.64D-05 DE=-7.30D-07 OVMax= 4.87D-05

 Cycle   9  Pass 1  IDiag  1:
 RMSU=  4.54D-07    CP:  9.96D-01  1.02D+00  3.76D-01  8.65D-01  8.45D-01
                    CP:  7.24D-01  3.72D-01  8.79D-01
 E= -568.005663811388     Delta-E=       -0.000000016610 Rises=F Damp=F
 DIIS: error= 1.69D-06 at cycle   9 NSaved=   9.
 NSaved= 9 IEnMin= 9 EnMin= -568.005663811388     IErMin= 9 ErrMin= 1.69D-06
 ErrMax= 1.69D-06  0.00D+00 EMaxC= 1.00D-01 BMatC= 4.33D-10 BMatP= 1.75D-08
 IDIUse=1 WtCom= 1.00D+00 WtEn= 0.00D+00
 Coeff-Com:  0.183D-04-0.573D-03-0.753D-04-0.105D-02 0.197D-02 0.121D-02
 Coeff-Com:  0.363D-01 0.123D+00 0.839D+00
 Coeff:      0.183D-04-0.573D-03-0.753D-04-0.105D-02 0.197D-02 0.121D-02
 Coeff:      0.363D-01 0.123D+00 0.839D+00
 Gap=     0.143 Goal=   None    Shift=    0.000
 RMSDP=2.21D-07 MaxDP=4.18D-06 DE=-1.66D-08 OVMax= 9.72D-06

 Cycle  10  Pass 1  IDiag  1:
 RMSU=  1.29D-07    CP:  9.96D-01  1.02D+00  3.76D-01  8.65D-01  8.45D-01
                    CP:  7.21D-01  3.89D-01  8.94D-01  1.06D+00
 E= -568.005663811860     Delta-E=       -0.000000000472 Rises=F Damp=F
 DIIS: error= 3.14D-07 at cycle  10 NSaved=  10.
 NSaved=10 IEnMin=10 EnMin= -568.005663811860     IErMin=10 ErrMin= 3.14D-07
 ErrMax= 3.14D-07  0.00D+00 EMaxC= 1.00D-01 BMatC= 1.42D-11 BMatP= 4.33D-10
 IDIUse=1 WtCom= 1.00D+00 WtEn= 0.00D+00
 Coeff-Com:  0.888D-06 0.104D-03 0.752D-04-0.194D-03-0.215D-02-0.746D-02
 Coeff-Com: -0.729D-03-0.186D-01 0.272D+00 0.757D+00
 Coeff:      0.888D-06 0.104D-03 0.752D-04-0.194D-03-0.215D-02-0.746D-02
 Coeff:     -0.729D-03-0.186D-01 0.272D+00 0.757D+00
 Gap=     0.143 Goal=   None    Shift=    0.000
 RMSDP=5.32D-08 MaxDP=1.13D-06 DE=-4.72D-10 OVMax= 1.80D-06

 Cycle  11  Pass 1  IDiag  1:
 RMSU=  3.13D-08    CP:  9.96D-01  1.02D+00  3.76D-01  8.65D-01  8.45D-01
                    CP:  7.21D-01  3.90D-01  9.01D-01  1.14D+00  9.44D-01
 E= -568.005663811874     Delta-E=       -0.000000000014 Rises=F Damp=F
 DIIS: error= 7.33D-08 at cycle  11 NSaved=  11.
 NSaved=11 IEnMin=11 EnMin= -568.005663811874     IErMin=11 ErrMin= 7.33D-08
 ErrMax= 7.33D-08  0.00D+00 EMaxC= 1.00D-01 BMatC= 7.60D-13 BMatP= 1.42D-11
 IDIUse=1 WtCom= 1.00D+00 WtEn= 0.00D+00
 Coeff-Com: -0.795D-06 0.538D-04 0.119D-04 0.471D-04-0.605D-03-0.179D-02
 Coeff-Com: -0.231D-02-0.132D-01 0.122D-01 0.217D+00 0.789D+00
 Coeff:     -0.795D-06 0.538D-04 0.119D-04 0.471D-04-0.605D-03-0.179D-02
 Coeff:     -0.231D-02-0.132D-01 0.122D-01 0.217D+00 0.789D+00
 Gap=     0.143 Goal=   None    Shift=    0.000
 RMSDP=1.49D-08 MaxDP=2.64D-07 DE=-1.41D-11 OVMax= 7.39D-07

 Cycle  12  Pass 1  IDiag  1:
 RMSU=  8.19D-09    CP:  9.96D-01  1.02D+00  3.76D-01  8.65D-01  8.45D-01
                    CP:  7.21D-01  3.90D-01  9.03D-01  1.15D+00  9.97D-01
                    CP:  8.85D-01
 E= -568.005663811873     Delta-E=        0.000000000001 Rises=F Damp=F
 DIIS: error= 2.09D-08 at cycle  12 NSaved=  12.
 NSaved=12 IEnMin=11 EnMin= -568.005663811874     IErMin=12 ErrMin= 2.09D-08
 ErrMax= 2.09D-08  0.00D+00 EMaxC= 1.00D-01 BMatC= 8.90D-14 BMatP= 7.60D-13
 IDIUse=1 WtCom= 1.00D+00 WtEn= 0.00D+00
 Coeff-Com: -0.171D-06 0.457D-05-0.221D-05 0.223D-04 0.129D-04 0.235D-04
 Coeff-Com: -0.214D-03-0.181D-02-0.122D-01-0.197D-02 0.139D+00 0.877D+00
 Coeff:     -0.171D-06 0.457D-05-0.221D-05 0.223D-04 0.129D-04 0.235D-04
 Coeff:     -0.214D-03-0.181D-02-0.122D-01-0.197D-02 0.139D+00 0.877D+00
 Gap=     0.143 Goal=   None    Shift=    0.000
 RMSDP=3.65D-09 MaxDP=5.17D-08 DE= 1.14D-12 OVMax= 1.96D-07

 SCF Done:  E(RB3LYP) =  -568.005663812     A.U. after   12 cycles
            NFock= 12  Conv=0.36D-08     -V/T= 2.0037
 KE= 5.659142710962D+02 PE=-1.654407835413D+03 EE= 3.652076181736D+02
 Leave Link  502 at Mon Sep 21 22:14:58 2015, MaxMem=    33554432 cpu:        37.7
 (Enter /group/hpc-share/gaussian/2009D/g09/l701.exe)
 Compute integral first derivatives.
 ... and contract with generalized density number  0.
 Leave Link  701 at Mon Sep 21 22:14:59 2015, MaxMem=    33554432 cpu:         1.8
 (Enter /group/hpc-share/gaussian/2009D/g09/l702.exe)
 L702 exits ... SP integral derivatives will be done elsewhere.
 Leave Link  702 at Mon Sep 21 22:14:59 2015, MaxMem=    33554432 cpu:         0.2
 (Enter /group/hpc-share/gaussian/2009D/g09/l703.exe)
 Compute integral first derivatives, UseDBF=F ICtDFT=           0.
 Integral derivatives from FoFJK, PRISM(SPDF).
 Calling FoFJK, ICntrl=      2127 FMM=F ISym2X=1 I1Cent= 0 IOpClX= 0 NMat=1 NMatS=1 NMatT=0.
 FoFJK:  IHMeth= 1 ICntrl=    2127 DoSepK=F KAlg= 0 I1Cent=   0 FoldK=F
 IRaf=         0 NMat=   1 IRICut=       1 DoRegI=T DoRafI=F ISym2E= 1.
 FoFCou: FMM=F IPFlag=           0 FMFlag=      100000 FMFlg1=         800
         NFxFlg=           0 DoJE=F BraDBF=F KetDBF=F FulRan=T
         wScrn=  0.000000 ICntrl=    2127 IOpCl=  0 I1Cent=           0 NGrid=           0
         NMat0=    1 NMatS0=      1 NMatT0=    0 NMatD0=    1 NMtDS0=    0 NMtDT0=    0
 Petite list used in FoFCou.
 Leave Link  703 at Mon Sep 21 22:15:00 2015, MaxMem=    33554432 cpu:         8.7
 (Enter /group/hpc-share/gaussian/2009D/g09/l716.exe)
 Dipole        = 1.48001116D+00 7.78677712D-01-2.22044605D-16
 ***** Axes restored to original set *****
 -------------------------------------------------------------------
 Center     Atomic                   Forces (Hartrees/Bohr)
 Number     Number              X              Y              Z
 -------------------------------------------------------------------
      1        8          -0.009506219    0.000000000    0.100614444
      2        7           0.002735729    0.000000000   -0.142228641
      3       16          -0.011569718    0.000000000    0.081704684
      4        6           0.015700156    0.000000000   -0.042155900
      5        1          -0.002478543    0.000000000    0.005986851
      6        1           0.002559297   -0.001748535   -0.001960719
      7        1           0.002559297    0.001748535   -0.001960719
 -------------------------------------------------------------------
 Cartesian Forces:  Max     0.142228641 RMS     0.043288689
 Leave Link  716 at Mon Sep 21 22:15:01 2015, MaxMem=    33554432 cpu:         0.2
 (Enter /group/hpc-share/gaussian/2009D/g09/l103.exe)

 GradGradGradGradGradGradGradGradGradGradGradGradGradGradGradGradGradGrad
 Berny optimization.
 Using GEDIIS/GDIIS optimizer.
 FormGI is forming the generalized inverse of G from B-inverse, IUseBI=4.
 Internal  Forces:  Max     0.100577371 RMS     0.032615717
 Search for a local minimum.
 Step number   2 out of a maximum of   28
 All quantities printed in internal units (Hartrees-Bohrs-Radians)
 RMS Force = .32616D-01 SwitMx=.10000D-02 MixMth= 1
 Mixed Optimization -- RFO/linear search
 Update second derivatives using D2CorX and points    1    2
 DE= -4.75D-02 DEPred=-4.55D-02 R= 1.04D+00
 TightC=F SS=  1.41D+00  RLast= 3.00D-01 DXNew= 5.0454D-01 9.0148D-01
 Trust test= 1.04D+00 RLast= 3.00D-01 DXMaxT set to 5.05D-01
 The second derivative matrix:
                          R1        R2        R3        R4        R5
           R1           0.36085
           R2           0.03539   0.46105
           R3           0.05165  -0.00405   0.34978
           R4           0.00299  -0.00092  -0.00123   0.34920
           R5           0.00703   0.00040   0.00229  -0.00014   0.34998
           R6           0.00703   0.00040   0.00229  -0.00014   0.00070
           A1           0.06360   0.00834   0.03028  -0.00116   0.00820
           A2          -0.10281   0.01123   0.00113   0.00252  -0.00329
           A3          -0.01705  -0.00156  -0.00676   0.00033  -0.00193
           A4           0.00890   0.00146   0.00482  -0.00016   0.00126
           A5           0.00890   0.00146   0.00482  -0.00016   0.00126
           A6           0.00108   0.00017   0.00057  -0.00002   0.00015
           A7           0.00108   0.00017   0.00057  -0.00002   0.00015
           A8          -0.00305  -0.00156  -0.00381   0.00003  -0.00086
           D1           0.00000   0.00000   0.00000   0.00000   0.00000
           D2           0.00000   0.00000   0.00000   0.00000   0.00000
           D3          -0.00031  -0.00098  -0.00204  -0.00002  -0.00042
           D4           0.00031   0.00098   0.00204   0.00002   0.00042
                          R6        A1        A2        A3        A4
           R6           0.34998
           A1           0.00820   0.34438
           A2          -0.00329  -0.04674   0.23635
           A3          -0.00193  -0.02243   0.01010   0.16530
           A4           0.00126   0.01444  -0.00758  -0.00344   0.16221
           A5           0.00126   0.01444  -0.00758  -0.00344   0.00221
           A6           0.00015   0.00172  -0.00089  -0.00041   0.00026
           A7           0.00015   0.00172  -0.00089  -0.00041   0.00026
           A8          -0.00086  -0.00950   0.00643   0.00230  -0.00143
           D1           0.00000   0.00000   0.00000   0.00000   0.00000
           D2           0.00000   0.00000   0.00000   0.00000   0.00000
           D3          -0.00042  -0.00447   0.00361   0.00110  -0.00067
           D4           0.00042   0.00447  -0.00361  -0.00110   0.00067
                          A5        A6        A7        A8        D1
           A5           0.16221
           A6           0.00026   0.16003
           A7           0.00026   0.00003   0.16003
           A8          -0.00143  -0.00017  -0.00017   0.16087
           D1           0.00000   0.00000   0.00000   0.00000   0.02288
           D2           0.00000   0.00000   0.00000   0.00000   0.00000
           D3          -0.00067  -0.00008  -0.00008   0.00038   0.00000
           D4           0.00067   0.00008   0.00008  -0.00038   0.00000
                          D2        D3        D4
           D2           0.01561
           D3           0.00000   0.01577
           D4           0.00000  -0.00016   0.01577
 ITU=  1  0
 Use linear search instead of GDIIS.
     Eigenvalues ---    0.01561   0.02288   0.10212   0.10668   0.15915
     Eigenvalues ---    0.16000   0.16317   0.17224   0.29594   0.33272
     Eigenvalues ---    0.34924   0.34928   0.34971   0.45268   0.50814
 RFO step:  Lambda=-3.27257975D-02 EMin= 1.56082885D-02
 Quartic linear search produced a step of  1.41503.
 Iteration  1 RMS(Cart)=  0.09330072 RMS(Int)=  0.07612791
 Iteration  2 RMS(Cart)=  0.16571490 RMS(Int)=  0.01389305
 Iteration  3 RMS(Cart)=  0.03977897 RMS(Int)=  0.00053755
 Iteration  4 RMS(Cart)=  0.00031511 RMS(Int)=  0.00042510
 Iteration  5 RMS(Cart)=  0.00000006 RMS(Int)=  0.00042510
 ITry= 1 IFail=0 DXMaxC= 7.88D-01 DCOld= 1.00D+10 DXMaxT= 5.05D-01 DXLimC= 3.00D+00 Rises=F
 ClnCor:  largest displacement from symmetrization is 1.24D-08 for atom     1.
 Variable       Old X    -DE/DX   Delta X   Delta X   Delta X     New X
                                 (Linear)    (Quad)   (Total)
    R1        2.53772  -0.10058  -0.15267  -0.25100  -0.40368   2.13404
    R2        3.11053   0.02496   0.05621   0.03198   0.08818   3.19871
    R3        3.30981   0.03286   0.11091   0.02308   0.13399   3.44381
    R4        2.06235   0.00301   0.00628   0.00836   0.01465   2.07700
    R5        2.06861   0.00290   0.01515  -0.00675   0.00840   2.07701
    R6        2.06861   0.00290   0.01515  -0.00675   0.00840   2.07701
    A1        2.04658   0.02504   0.19237  -0.13352   0.05885   2.10543
    A2        2.25739  -0.08067  -0.30590  -0.12894  -0.43484   1.82255
    A3        1.85384  -0.01055  -0.08037   0.03235  -0.04778   1.80606
    A4        1.94044   0.00454   0.04217  -0.02918   0.01254   1.95298
    A5        1.94044   0.00454   0.04217  -0.02918   0.01254   1.95298
    A6        1.91426   0.00128   0.00513   0.00190   0.00727   1.92153
    A7        1.91426   0.00128   0.00513   0.00190   0.00727   1.92153
    A8        1.90020  -0.00122  -0.01476   0.02244   0.00672   1.90692
    D1        0.00000   0.00000   0.00000   0.00000   0.00000   0.00000
    D2        3.14159   0.00000   0.00000   0.00000   0.00000   3.14159
    D3       -1.06009  -0.00236  -0.01824   0.00586  -0.01331  -1.07340
    D4        1.06009   0.00236   0.01824  -0.00586   0.01331   1.07340
         Item               Value     Threshold  Converged?
 Maximum Force            0.100577     0.000450     NO 
 RMS     Force            0.032616     0.000300     NO 
 Maximum Displacement     0.788402     0.001800     NO 
 RMS     Displacement     0.287689     0.001200     NO 
 Predicted change in Energy=-4.962805D-02
 Lowest energy point so far.  Saving SCF results.
 GradGradGradGradGradGradGradGradGradGradGradGradGradGradGradGradGradGrad

 Leave Link  103 at Mon Sep 21 22:15:01 2015, MaxMem=    33554432 cpu:         0.0
 (Enter /group/hpc-share/gaussian/2009D/g09/l202.exe)
                          Input orientation:                          
 ---------------------------------------------------------------------
 Center     Atomic      Atomic             Coordinates (Angstroms)
 Number     Number       Type             X           Y           Z
 ---------------------------------------------------------------------
      1          8           0        0.469195    0.000000    0.092691
      2          7           0        0.233200    0.000000    1.197045
      3         16           0        1.477287    0.000000    2.344835
      4          6           0        3.007723    0.000000    1.355465
      5          1           0        3.803139    0.000000    2.113975
      6          1           0        3.087795   -0.896236    0.724287
      7          1           0        3.087795    0.896236    0.724287
 ---------------------------------------------------------------------
                    Distance matrix (angstroms):
                    1          2          3          4          5
     1  O    0.000000
     2  N    1.129288   0.000000
     3  S    2.467469   1.692683   0.000000
     4  C    2.835263   2.779042   1.822386   0.000000
     5  H    3.898816   3.685814   2.337282   1.099102   0.000000
     6  H    2.838875   3.029100   2.454211   1.099107   1.801718
     7  H    2.838875   3.029100   2.454211   1.099107   1.801718
                    6          7
     6  H    0.000000
     7  H    1.792471   0.000000
 Stoichiometry    CH3NOS
 Framework group  CS[SG(CHNOS),X(H2)]
 Deg. of freedom    10
 Full point group                 CS      NOp   2
 RotChk:  IX=0 Diff= 2.36D-01
 Largest Abelian subgroup         CS      NOp   2
 Largest concise Abelian subgroup CS      NOp   2
                         Standard orientation:                         
 ---------------------------------------------------------------------
 Center     Atomic      Atomic             Coordinates (Angstroms)
 Number     Number       Type             X           Y           Z
 ---------------------------------------------------------------------
      1          8           0       -0.876826   -1.418453    0.000000
      2          7           0       -1.175978   -0.329509    0.000000
      3         16           0        0.000000    0.887968    0.000000
      4          6           0        1.584832   -0.011698    0.000000
      5          1           0        2.335283    0.791326    0.000000
      6          1           0        1.701091   -0.637222    0.896236
      7          1           0        1.701091   -0.637222   -0.896236
 ---------------------------------------------------------------------
 Rotational constants (GHZ):     11.8664343      5.3924128      3.7978078
 Leave Link  202 at Mon Sep 21 22:15:01 2015, MaxMem=    33554432 cpu:         0.0
 (Enter /group/hpc-share/gaussian/2009D/g09/l301.exe)
 Standard basis: Aug-CC-pVDZ (5D, 7F)
 Ernie: Thresh=  0.10000D-02 Tol=  0.10000D-05 Strict=F.
 Ernie:  16 primitive shells out of 149 were deleted.
 There are    91 symmetry adapted cartesian basis functions of A'  symmetry.
 There are    40 symmetry adapted cartesian basis functions of A"  symmetry.
 There are    83 symmetry adapted basis functions of A'  symmetry.
 There are    40 symmetry adapted basis functions of A"  symmetry.
   123 basis functions,   243 primitive gaussians,   131 cartesian basis functions
    20 alpha electrons       20 beta electrons
       nuclear repulsion energy       161.1292440088 Hartrees.
 IExCor=  402 DFT=T Ex+Corr=B3LYP ExCW=0 ScaHFX=  0.200000
 ScaDFX=  0.800000  0.720000  1.000000  0.810000 ScalE2=  1.000000  1.000000
 IRadAn=      0 IRanWt=     -1 IRanGd=            0 ICorTp=0 IEmpDi=  4
 NAtoms=    7 NActive=    7 NUniq=    6 SFac= 1.36D+00 NAtFMM=   60 NAOKFM=F Big=F
 Integral buffers will be    131072 words long.
 Raffenetti 2 integral format.
 Two-electron integral symmetry is turned on.
 Leave Link  301 at Mon Sep 21 22:15:01 2015, MaxMem=    33554432 cpu:         0.4
 (Enter /group/hpc-share/gaussian/2009D/g09/l302.exe)
 NPDir=0 NMtPBC=     1 NCelOv=     1 NCel=       1 NClECP=     1 NCelD=      1
         NCelK=      1 NCelE2=     1 NClLst=     1 CellRange=     0.0.
 One-electron integrals computed using PRISM.
 One-electron integral symmetry used in STVInt
 NBasis=   123 RedAO= T EigKep=  4.91D-04  NBF=    83    40
 NBsUse=   123 1.00D-06 EigRej= -1.00D+00 NBFU=    83    40
 Precomputing XC quadrature grid using
 IXCGrd= 4 IRadAn=           0 IRanWt=          -1 IRanGd=           0 AccXCQ= 0.00D+00.
 Generated NRdTot=       0 NPtTot=           0 NUsed=           0 NTot=          32
 NSgBfM=   131   131   131   131   131 MxSgAt=     7 MxSgA2=     7.
 Leave Link  302 at Mon Sep 21 22:15:01 2015, MaxMem=    33554432 cpu:         1.5
 (Enter /group/hpc-share/gaussian/2009D/g09/l303.exe)
 DipDrv:  MaxL=1.
 Leave Link  303 at Mon Sep 21 22:15:02 2015, MaxMem=    33554432 cpu:         0.2
 (Enter /group/hpc-share/gaussian/2009D/g09/l401.exe)
 Initial guess from the checkpoint file:  "cis-mesno.chk"
 B after Tr=     0.000000    0.000000    0.000000
         Rot=    0.998733    0.000000    0.000000    0.050331 Ang=   5.77 deg.
 Guess basis will be translated and rotated to current coordinates.
 JPrj=2 DoOrth=T DoCkMO=T.
 Initial guess orbital symmetries:
       Occupied  (A') (A') (A') (A') (A') (A') (A') (A") (A') (A')
                 (A') (A') (A') (A') (A") (A') (A") (A') (A") (A')
       Virtual   (A') (A') (A') (A') (A') (A') (A') (A') (A') (A')
                 (A') (A') (A') (A') (A') (A') (A') (A') (A') (A')
                 (A') (A') (A') (A') (A') (A') (A') (A') (A') (A')
                 (A') (A') (A') (A') (A') (A') (A') (A') (A') (A')
                 (A') (A') (A') (A') (A') (A') (A') (A') (A') (A')
                 (A') (A') (A') (A') (A') (A') (A') (A') (A') (A')
                 (A') (A') (A') (A') (A') (A') (A') (A") (A") (A")
                 (A") (A") (A") (A") (A") (A") (A") (A") (A") (A")
                 (A") (A") (A") (A") (A") (A") (A") (A") (A") (A")
                 (A") (A") (A") (A") (A") (A") (A") (A") (A") (A")
                 (A") (A") (A")
 The electronic state of the initial guess is 1-A'.
 Generating alternative initial guess.
 ExpMin= 2.97D-02 ExpMax= 1.11D+05 ExpMxC= 1.07D+03 IAcc=3 IRadAn=         5 AccDes= 0.00D+00
 Harris functional with IExCor=  402 and IRadAn=       5 diagonalized for initial guess.
 HarFok:  IExCor=  402 AccDes= 0.00D+00 IRadAn=         5 IDoV= 1 UseB2=F ITyADJ=14
 ICtDFT=  3500011 ScaDFX=  1.000000  1.000000  1.000000  1.000000
 FoFCou: FMM=F IPFlag=           0 FMFlag=      100000 FMFlg1=           0
         NFxFlg=           0 DoJE=T BraDBF=F KetDBF=T FulRan=T
         wScrn=  0.000000 ICntrl=     500 IOpCl=  0 I1Cent=   200000004 NGrid=           0
         NMat0=    1 NMatS0=      1 NMatT0=    0 NMatD0=    1 NMtDS0=    0 NMtDT0=    0
 Petite list used in FoFCou.
 Harris En= -567.988993114635    
 Leave Link  401 at Mon Sep 21 22:15:02 2015, MaxMem=    33554432 cpu:         3.1
 (Enter /group/hpc-share/gaussian/2009D/g09/l502.exe)
 Closed shell SCF:
 Using DIIS extrapolation, IDIIS=  1040.
 Integral symmetry usage will be decided dynamically.
 IVT=       72237 IEndB=       72237 NGot=    33554432 MDV=    33516128
 LenX=    33516128 LenY=    33498526
 Requested convergence on RMS density matrix=1.00D-08 within 128 cycles.
 Requested convergence on MAX density matrix=1.00D-06.
 Requested convergence on             energy=1.00D-06.
 No special actions if energy rises.
 Fock matrices will be formed incrementally for  20 cycles.

 Cycle   1  Pass 1  IDiag  1:
 FoFJK:  IHMeth= 1 ICntrl=       0 DoSepK=F KAlg= 0 I1Cent=   0 FoldK=F
 IRaf= 990000000 NMat=   1 IRICut=       1 DoRegI=T DoRafI=F ISym2E= 1.
 FoFCou: FMM=F IPFlag=           0 FMFlag=      100000 FMFlg1=           0
         NFxFlg=           0 DoJE=F BraDBF=F KetDBF=F FulRan=T
         wScrn=  0.000000 ICntrl=       0 IOpCl=  0 I1Cent=           0 NGrid=           0
         NMat0=    1 NMatS0=      1 NMatT0=    0 NMatD0=    1 NMtDS0=    0 NMtDT0=    0
 Petite list used in FoFCou.
 E= -567.931723148737    
 DIIS: error= 1.79D-02 at cycle   1 NSaved=   1.
 NSaved= 1 IEnMin= 1 EnMin= -567.931723148737     IErMin= 1 ErrMin= 1.79D-02
 ErrMax= 1.79D-02  0.00D+00 EMaxC= 1.00D-01 BMatC= 1.01D-01 BMatP= 1.01D-01
 IDIUse=3 WtCom= 8.21D-01 WtEn= 1.79D-01
 Coeff-Com:  0.100D+01
 Coeff-En:   0.100D+01
 Coeff:      0.100D+01
 Recover alternate guess density for next cycle.
 RMSDP=6.38D-03 MaxDP=1.07D-01              OVMax= 0.00D+00

 Cycle   2  Pass 1  IDiag  1:
 RMSU=  6.38D-03    CP:  9.96D-01
[...]
 Number     Number              X              Y              Z
 -------------------------------------------------------------------
      1        8           0.000019235    0.000000000    0.000034867
      2        7          -0.000012854    0.000000000    0.000031048
      3       16           0.000077273    0.000000000   -0.000131005
      4        6          -0.000102928    0.000000000    0.000092448
      5        1           0.000026753    0.000000000   -0.000033931
      6        1          -0.000003739    0.000001233    0.000003287
      7        1          -0.000003739   -0.000001233    0.000003287
 -------------------------------------------------------------------
 Cartesian Forces:  Max     0.000131005 RMS     0.000047263
 Leave Link  716 at Mon Sep 21 22:15:59 2015, MaxMem=    33554432 cpu:         0.1
 (Enter /group/hpc-share/gaussian/2009D/g09/l103.exe)

 GradGradGradGradGradGradGradGradGradGradGradGradGradGradGradGradGradGrad
 Berny optimization.
 Using GEDIIS/GDIIS optimizer.
 FormGI is forming the generalized inverse of G from B-inverse, IUseBI=4.
 Internal  Forces:  Max     0.000119761 RMS     0.000037738
 Search for a local minimum.
 Step number  10 out of a maximum of   28
 All quantities printed in internal units (Hartrees-Bohrs-Radians)
 RMS Force = .37738D-04 SwitMx=.10000D-02 MixMth= 2
 Mixed Optimization -- En-DIIS/RFO-DIIS
 Swapping is turned off.
 Update second derivatives using D2CorX and points    3    4    5    6    7
                                                      8    9   10
 DE= -7.41D-07 DEPred=-6.54D-07 R= 1.13D+00
 Trust test= 1.13D+00 RLast= 3.33D-03 DXMaxT set to 8.49D-01
 The second derivative matrix:
                          R1        R2        R3        R4        R5
           R1           0.91609
           R2           0.12731   0.10361
           R3           0.00041   0.00721   0.26314
           R4          -0.00014   0.00207   0.01480   0.34763
           R5           0.00225  -0.00149   0.00892  -0.00086   0.34998
           R6           0.00225  -0.00149   0.00892  -0.00086   0.00070
           A1           0.06629   0.04896   0.02593  -0.00118   0.00758
           A2          -0.00526   0.04180  -0.00112   0.00777  -0.00516
           A3           0.00372  -0.00606  -0.02339   0.00191  -0.00161
           A4           0.00657  -0.00007   0.03772  -0.00463  -0.00006
           A5           0.00657  -0.00007   0.03772  -0.00463  -0.00006
           A6          -0.00532   0.00136  -0.02188   0.00443   0.00227
           A7          -0.00532   0.00136  -0.02188   0.00443   0.00227
           A8          -0.00605   0.00333  -0.00817  -0.00140  -0.00262
           D1           0.00000   0.00000   0.00000   0.00000   0.00000
           D2           0.00000   0.00000   0.00000   0.00000   0.00000
           D3          -0.00132   0.00163  -0.00290  -0.00228  -0.00282
           D4           0.00132  -0.00163   0.00290   0.00228   0.00282
                          R6        A1        A2        A3        A4
           R6           0.34998
           A1           0.00758   0.45569
           A2          -0.00516  -0.07208   0.26655
           A3          -0.00161  -0.03852   0.02341   0.16714
           A4          -0.00006   0.01481  -0.00855   0.00049   0.15252
           A5          -0.00006   0.01481  -0.00855   0.00049  -0.00748
           A6           0.00227   0.01652  -0.01235  -0.00905   0.01079
           A7           0.00227   0.01652  -0.01235  -0.00905   0.01079
           A8          -0.00262  -0.02388   0.01852   0.00957  -0.00662
           D1           0.00000   0.00000   0.00000   0.00000   0.00000
           D2           0.00000   0.00000   0.00000   0.00000   0.00000
           D3          -0.00282  -0.02636   0.02032   0.01236  -0.00877
           D4           0.00282   0.02636  -0.02032  -0.01236   0.00877
                          A5        A6        A7        A8        D1
           A5           0.15252
           A6           0.01079   0.15409
           A7           0.01079  -0.00591   0.15409
           A8          -0.00662  -0.00087  -0.00087   0.16520
           D1           0.00000   0.00000   0.00000   0.00000   0.02288
           D2           0.00000   0.00000   0.00000   0.00000   0.00000
           D3          -0.00877  -0.00001  -0.00001   0.00515   0.00000
           D4           0.00877   0.00001   0.00001  -0.00515   0.00000
                          D2        D3        D4
           D2           0.01561
           D3           0.00000   0.02104
           D4           0.00000  -0.00543   0.02104
 ITU=  0  1  1  1  1  1  1  1  1  0
     Eigenvalues ---    0.01561   0.02288   0.06621   0.08874   0.10665
     Eigenvalues ---    0.13228   0.16000   0.16473   0.25847   0.28033
     Eigenvalues ---    0.34928   0.35037   0.35143   0.49099   0.94703
 En-DIIS/RFO-DIIS IScMMF=        0 using points:    10    9    8
 RFO step:  Lambda=-4.61414214D-08.
 NNeg= 0 NP= 3 Switch=  2.50D-03 Rises=F DC=  6.78D-06 SmlDif=  1.00D-05
 RMS Error=  0.7073407133D-04 NUsed= 3 EDIIS=F
 DidBck=F Rises=F RFO-DIIS coefs:    1.23341   -0.28342    0.05001
 Iteration  1 RMS(Cart)=  0.00017225 RMS(Int)=  0.00000016
 Iteration  2 RMS(Cart)=  0.00000001 RMS(Int)=  0.00000016
 ITry= 1 IFail=0 DXMaxC= 3.81D-04 DCOld= 1.00D+10 DXMaxT= 8.49D-01 DXLimC= 3.00D+00 Rises=F
 ClnCor:  largest displacement from symmetrization is 1.92D-12 for atom     7.
 Variable       Old X    -DE/DX   Delta X   Delta X   Delta X     New X
                                 (Linear)    (Quad)   (Total)
    R1        2.24598  -0.00002   0.00002   0.00002   0.00004   2.24602
    R2        3.48820  -0.00004  -0.00031  -0.00009  -0.00039   3.48781
    R3        3.43812  -0.00012  -0.00014  -0.00035  -0.00049   3.43762
    R4        2.07155   0.00000   0.00002   0.00001   0.00003   2.07158
    R5        2.07253  -0.00001   0.00001  -0.00001   0.00000   2.07253
    R6        2.07253  -0.00001   0.00001  -0.00001   0.00000   2.07253
    A1        2.02086  -0.00007  -0.00012   0.00004  -0.00008   2.02078
    A2        1.75343   0.00001  -0.00008   0.00013   0.00006   1.75348
    A3        1.86831   0.00005  -0.00003   0.00027   0.00024   1.86855
    A4        1.92152  -0.00001   0.00012  -0.00008   0.00004   1.92156
    A5        1.92152  -0.00001   0.00012  -0.00008   0.00004   1.92156
    A6        1.91837  -0.00001  -0.00010  -0.00004  -0.00015   1.91823
    A7        1.91837  -0.00001  -0.00010  -0.00004  -0.00015   1.91823
    A8        1.91531   0.00000   0.00000  -0.00003  -0.00003   1.91528
    D1        0.00000   0.00000   0.00000   0.00000   0.00000   0.00000
    D2        3.14159   0.00000   0.00000   0.00000   0.00000   3.14159
    D3       -1.05694   0.00001  -0.00008   0.00007  -0.00001  -1.05695
    D4        1.05694  -0.00001   0.00008  -0.00007   0.00001   1.05695
         Item               Value     Threshold  Converged?
 Maximum Force            0.000120     0.000450     YES
 RMS     Force            0.000038     0.000300     YES
 Maximum Displacement     0.000381     0.001800     YES
 RMS     Displacement     0.000172     0.001200     YES
 Predicted change in Energy=-4.465562D-08
 Optimization completed.
    -- Stationary point found.
                           ----------------------------
                           !   Optimized Parameters   !
                           ! (Angstroms and Degrees)  !
 --------------------------                            --------------------------
 ! Name  Definition              Value          Derivative Info.                !
 --------------------------------------------------------------------------------
 ! R1    R(1,2)                  1.1885         -DE/DX =    0.0                 !
 ! R2    R(2,3)                  1.8459         -DE/DX =    0.0                 !
 ! R3    R(3,4)                  1.8194         -DE/DX =   -0.0001              !
 ! R4    R(4,5)                  1.0962         -DE/DX =    0.0                 !
 ! R5    R(4,6)                  1.0967         -DE/DX =    0.0                 !
 ! R6    R(4,7)                  1.0967         -DE/DX =    0.0                 !
 ! A1    A(1,2,3)              115.7866         -DE/DX =   -0.0001              !
 ! A2    A(2,3,4)              100.4641         -DE/DX =    0.0                 !
 ! A3    A(3,4,5)              107.0462         -DE/DX =    0.0001              !
 ! A4    A(3,4,6)              110.0947         -DE/DX =    0.0                 !
 ! A5    A(3,4,7)              110.0947         -DE/DX =    0.0                 !
 ! A6    A(5,4,6)              109.9147         -DE/DX =    0.0                 !
 ! A7    A(5,4,7)              109.9147         -DE/DX =    0.0                 !
 ! A8    A(6,4,7)              109.7391         -DE/DX =    0.0                 !
 ! D1    D(1,2,3,4)              0.0            -DE/DX =    0.0                 !
 ! D2    D(2,3,4,5)            180.0            -DE/DX =    0.0                 !
 ! D3    D(2,3,4,6)            -60.5583         -DE/DX =    0.0                 !
 ! D4    D(2,3,4,7)             60.5583         -DE/DX =    0.0                 !
 --------------------------------------------------------------------------------
 Lowest energy point so far.  Saving SCF results.
 GradGradGradGradGradGradGradGradGradGradGradGradGradGradGradGradGradGrad

 Largest change from initial coordinates is atom    5       0.803 Angstoms.
 Leave Link  103 at Mon Sep 21 22:15:59 2015, MaxMem=    33554432 cpu:         0.0
 (Enter /group/hpc-share/gaussian/2009D/g09/l202.exe)
                          Input orientation:                          
 ---------------------------------------------------------------------
 Center     Atomic      Atomic             Coordinates (Angstroms)
 Number     Number       Type             X           Y           Z
 ---------------------------------------------------------------------
      1          8           0        0.562186    0.000000    0.028199
      2          7           0        0.191136    0.000000    1.157317
      3         16           0        1.519437    0.000000    2.439064
      4          6           0        2.999551    0.000000    1.381057
      5          1           0        3.870447    0.000000    2.046812
      6          1           0        3.011689   -0.896959    0.750068
      7          1           0        3.011689    0.896959    0.750068
 ---------------------------------------------------------------------
                    Distance matrix (angstroms):
                    1          2          3          4          5
     1  O    0.000000
     2  N    1.188523   0.000000
     3  S    2.593955   1.845876   0.000000
     4  C    2.787647   2.817314   1.819373   0.000000
     5  H    3.875485   3.785304   2.383508   1.096215   0.000000
     6  H    2.706602   2.987625   2.425708   1.096736   1.795423
     7  H    2.706602   2.987625   2.425708   1.096736   1.795423
                    6          7
     6  H    0.000000
     7  H    1.793918   0.000000
 Stoichiometry    CH3NOS
 Framework group  CS[SG(CHNOS),X(H2)]
 Deg. of freedom    10
 Full point group                 CS      NOp   2
 RotChk:  IX=0 Diff= 3.42D-16
 Largest Abelian subgroup         CS      NOp   2
 Largest concise Abelian subgroup CS      NOp   2
                         Standard orientation:                         
 ---------------------------------------------------------------------
 Center     Atomic      Atomic             Coordinates (Angstroms)
 Number     Number       Type             X           Y           Z
 ---------------------------------------------------------------------
      1          8           0       -0.783136   -1.511035    0.000000
      2          7           0       -1.233652   -0.411207    0.000000
      3         16           0        0.000000    0.961878    0.000000
      4          6           0        1.551700    0.011960    0.000000
      5          1           0        2.372974    0.738043    0.000000
      6          1           0        1.608741   -0.616563    0.896959
      7          1           0        1.608741   -0.616563   -0.896959
 ---------------------------------------------------------------------
 Rotational constants (GHZ):     11.0561468      5.1663039      3.6024119
 Leave Link  202 at Mon Sep 21 22:15:59 2015, MaxMem=    33554432 cpu:         0.0
 (Enter /group/hpc-share/gaussian/2009D/g09/l601.exe)
 Copying SCF densities to generalized density rwf, IOpCl= 0 IROHF=0.

 **********************************************************************

            Population analysis using the SCF density.

 **********************************************************************

 Orbital symmetries:
       Occupied  (A') (A') (A') (A') (A') (A') (A') (A") (A') (A')
                 (A') (A') (A') (A") (A') (A") (A') (A') (A") (A')
       Virtual   (A") (A') (A') (A') (A") (A') (A') (A') (A") (A')
                 (A') (A") (A') (A') (A") (A') (A") (A') (A') (A")
                 (A') (A") (A') (A') (A') (A') (A') (A") (A') (A")
                 (A') (A') (A") (A') (A") (A') (A") (A') (A') (A')
                 (A') (A") (A') (A") (A') (A') (A") (A') (A") (A')
                 (A") (A') (A") (A') (A') (A') (A") (A") (A') (A')
                 (A') (A") (A") (A') (A') (A') (A") (A') (A') (A")
                 (A') (A') (A') (A") (A") (A') (A') (A") (A') (A")
                 (A') (A') (A") (A') (A') (A') (A') (A") (A") (A")
                 (A') (A') (A') (A') (A") (A') (A') (A') (A") (A')
                 (A") (A') (A')
 The electronic state is 1-A'.
 Alpha  occ. eigenvalues --  -88.91828 -19.23863 -14.49102 -10.23307  -7.97846
 Alpha  occ. eigenvalues --   -5.94231  -5.93814  -5.93385  -1.20462  -0.81913
 Alpha  occ. eigenvalues --   -0.72274  -0.61581  -0.51614  -0.49043  -0.48253
 Alpha  occ. eigenvalues --   -0.44374  -0.43172  -0.36688  -0.27451  -0.25421
 Alpha virt. eigenvalues --   -0.10352  -0.03009  -0.01160   0.01154   0.02147
 Alpha virt. eigenvalues --    0.02269   0.05504   0.06926   0.07923   0.08075
 Alpha virt. eigenvalues --    0.08180   0.08618   0.11089   0.11580   0.13338
 Alpha virt. eigenvalues --    0.13543   0.14990   0.15332   0.16842   0.18828
 Alpha virt. eigenvalues --    0.18942   0.22670   0.23690   0.25218   0.26955
 Alpha virt. eigenvalues --    0.27611   0.30608   0.31370   0.32531   0.33782
 Alpha virt. eigenvalues --    0.37265   0.37667   0.39865   0.40581   0.41261
 Alpha virt. eigenvalues --    0.43572   0.46941   0.47665   0.48678   0.50830
 Alpha virt. eigenvalues --    0.52251   0.52849   0.56760   0.60774   0.61180
 Alpha virt. eigenvalues --    0.64176   0.64758   0.71364   0.71583   0.73021
 Alpha virt. eigenvalues --    0.74120   0.77423   0.82237   0.85030   0.85703
 Alpha virt. eigenvalues --    0.87881   0.90210   0.91989   0.93602   0.96187
 Alpha virt. eigenvalues --    0.96628   0.97410   1.01786   1.02655   1.02954
 Alpha virt. eigenvalues --    1.11143   1.12407   1.15151   1.19235   1.19758
 Alpha virt. eigenvalues --    1.26586   1.31085   1.43420   1.44210   1.54909
 Alpha virt. eigenvalues --    1.55671   1.58544   1.61268   1.76934   1.77295
 Alpha virt. eigenvalues --    1.80648   1.86029   1.89358   1.90210   1.93535
 Alpha virt. eigenvalues --    2.05036   2.15007   2.16515   2.21130   2.24325
 Alpha virt. eigenvalues --    2.25341   2.26586   2.35572   2.47690   2.55416
 Alpha virt. eigenvalues --    2.57298   2.65584   3.13630   3.27933   3.34845
 Alpha virt. eigenvalues --    3.44722   3.50800   3.67637
          Condensed to atoms (all electrons):
               1          2          3          4          5          6
     1  O    8.572585  -0.129107  -0.070027  -0.020755   0.003863   0.011950
     2  N   -0.129107   7.295830  -0.115948   0.014891   0.001353  -0.021026
     3  S   -0.070027  -0.115948  15.878950   0.158622  -0.159224  -0.059150
     4  C   -0.020755   0.014891   0.158622   4.259553   0.317134   0.310219
     5  H    0.003863   0.001353  -0.159224   0.317134   1.563504  -0.230464
     6  H    0.011950  -0.021026  -0.059150   0.310219  -0.230464   1.426910
     7  H    0.011950  -0.021026  -0.059150   0.310219  -0.230464  -0.235979
               7
     1  O    0.011950
     2  N   -0.021026
     3  S   -0.059150
     4  C    0.310219
     5  H   -0.230464
     6  H   -0.235979
     7  H    1.426910
 Mulliken charges:
               1
     1  O   -0.380459
     2  N   -0.024965
     3  S    0.425928
     4  C    0.650116
     5  H   -0.265701
     6  H   -0.202459
     7  H   -0.202459
 Sum of Mulliken charges =   0.00000
 Mulliken charges with hydrogens summed into heavy atoms:
               1
     1  O   -0.380459
     2  N   -0.024965
     3  S    0.425928
     4  C   -0.020504
 Electronic spatial extent (au):  <R**2>=            348.2360
 Charge=              0.0000 electrons
 Dipole moment (field-independent basis, Debye):
    X=              2.1626    Y=              0.2979    Z=              0.0000  Tot=              2.1830
 Quadrupole moment (field-independent basis, Debye-Ang):
   XX=            -29.5433   YY=            -33.4569   ZZ=            -30.8295
   XY=             -0.3528   XZ=              0.0000   YZ=              0.0000
 Traceless Quadrupole moment (field-independent basis, Debye-Ang):
   XX=              1.7332   YY=             -2.1803   ZZ=              0.4471
   XY=             -0.3528   XZ=              0.0000   YZ=              0.0000
 Octapole moment (field-independent basis, Debye-Ang**2):
  XXX=              4.4031  YYY=             -3.0589  ZZZ=              0.0000  XYY=              1.2606
  XXY=              0.8585  XXZ=              0.0000  XZZ=             -0.7202  YZZ=             -4.5773
  YYZ=              0.0000  XYZ=              0.0000
 Hexadecapole moment (field-independent basis, Debye-Ang**3):
 XXXX=           -226.7748 YYYY=           -200.3217 ZZZZ=            -42.4253 XXXY=            -22.9390
 XXXZ=              0.0000 YYYX=            -29.0695 YYYZ=              0.0000 ZZZX=              0.0000
 ZZZY=              0.0000 XXYY=            -67.6732 XXZZ=            -43.7688 YYZZ=            -39.6808
 XXYZ=              0.0000 YYXZ=              0.0000 ZZXY=             -9.4474
 N-N= 1.558600484437D+02 E-N=-1.655775257973D+03  KE= 5.659993969625D+02
 Symmetry A'   KE= 5.212907333802D+02
 Symmetry A"   KE= 4.470866358231D+01
 No NMR shielding tensors so no spin-rotation constants.
 Leave Link  601 at Mon Sep 21 22:15:59 2015, MaxMem=    33554432 cpu:         1.7
 (Enter /group/hpc-share/gaussian/2009D/g09/l9999.exe)
 B after Tr=    -0.483243    0.000000    0.023976
         Rot=    0.998516    0.000000   -0.054458    0.000000 Ang=  -6.24 deg.
 Final structure in terms of initial Z-matrix:
 O
 N,1,no2
 S,2,sn3,1,sno3
 C,3,cs4,1,cso4,2,dih4,0
 H,4,hc5,3,hcs5,1,dih5,0
 H,4,hc6,3,hcs6,5,dih6,0
 H,4,hc7,3,hcs7,5,dih7,0
      Variables:
 no2=1.1885227
 sn3=1.84587629
 sno3=115.78662922
 cs4=1.81937299
 cso4=76.09815641
 dih4=180.
 hc5=1.09621543
 hcs5=107.04619693
 dih5=180.
 hc6=1.09673578
 hcs6=110.09470814
 dih6=119.44167369
 hc7=1.09673578
 hcs7=110.09470814
 dih7=-119.44167369
 1\1\GINC-HPC-CN18\FOpt\RB3LYP\Aug-CC-pVDZ\C1H3N1O1S1\6498IVANOVM\21-Se
 p-2015\0\\#P b3lyp/aug-cc-pvdz opt\\cis-mesno\\0,1\O,0.7144955127,0.,-
 0.1383726665\N,0.3434453719,0.,0.9907455745\S,1.6717464395,0.,2.272492
 6378\C,3.1518607283,0.,1.2144851868\H,4.0227560679,0.,1.8802400866\H,3
 .1639980982,-0.89695877,0.5834962686\H,3.1639980982,0.89695877,0.58349
 62686\\Version=EM64L-G09RevD.01\State=1-A'\HF=-568.0477758\RMSD=4.142e
 -09\RMSF=4.726e-05\Dipole=0.8569995,0.,0.056297\Quadrupole=1.2365967,0
 .3323904,-1.5689871,0.,-0.4663079,0.\PG=CS [SG(C1H1N1O1S1),X(H2)]\\@


 WOE UNTO THEM THAT CALL EVIL GOOD, AND GOOD EVIL      
 Job cpu time:       0 days  0 hours  8 minutes 59.0 seconds.
 File lengths (MBytes):  RWF=     11 Int=      0 D2E=      0 Chk=      2 Scr=      1
 Normal termination of Gaussian 09 at Mon Sep 21 22:16:00 2015.
