 Entering Gaussian System, Link 0=g09
 Input=cis-mesno.com
 Output=cis-mesno.log
 AtFile(1): cis-mesno.zmat
             o
             n   1 no2
             s    2 sn3         1 sno3
             c    3 cs4         1 cso4          2 dih4
             h    4 hc5         3 hcs5          1 dih5
             h    4 hc6         3 hcs6          5 dih6
             h    4 hc7         3 hcs7          5 dih7
            
            no2         1.400000
            sn3         1.625000
            sno3        109.471
            cs4         1.710000
            cso4        109.471
            dih4        180.000
            hc5         1.089000
            hcs5        109.471
            dih5        180.000
            hc6         1.089000
            hcs6        109.471
            dih6        120.000
            hc7         1.089000
            hcs7        109.471
            dih7        240.000
 AtFile(1): /home/MARQNET/talipovm/basis-library/def2-SV(P)+d.gbs
            !  Def2-SV(P)  EMSL  Basis Set Exchange Library   3/29/11 8:36 AM
            ! Elements                             References
            ! --------                             ----------
            ! H He Li Be B C N O F Ne Na Mg Al Si P S Cl Ar K Ca Sc Ti V Cr Mn Fe Co Ni Cu Zn Ga Ge As Se Br Kr Rb Sr Y Zr Nb Mo Tc Ru Rh Pd Ag Cd In Sn Sb Te I Xe Cs Ba La Hf Ta W Re Os Ir Pt Au Hg Tl Pb Bi Po At Rn : F. Weigend and R. Ahlrichs, Phys. Chem. Chem. Phys., Balanced basis sets of split valence, triple zeta valence and quadruple zeta valence
            ! quality for H to Rn: Design and assessment of accuracy 7, 3297 (2005).
            !
            -H     0
            S   3   1.00
                 13.0107010              0.19682158E-01
                  1.9622572              0.13796524
                  0.44453796             0.47831935
            S   1   1.00
                  0.12194962             1.0000000
            ****
            -B     0
            S   5   1.00
                839.31830086            -0.55929201074E-02
                126.26464843            -0.41565520771E-01
                 28.620600763           -0.18299816983
                  7.8793722710          -0.46540391866
                  2.4088857172          -0.44173884791
            S   1   1.00
                  0.25105109036          1.0000000
            S   1   1.00
                  0.83648866069E-01            1.0000000
            P   3   1.00
                  6.0332223619          -0.35603672456E-01
                  1.2499157866          -0.19895775769
                  0.33871676350         -0.50850202618
            P   1   1.00
                  0.96415632351E-01            1.0000000
            D   1   1.00
                  0.5000000              1.0000000
            ****
            -C     0
            S   5   1.00
               1238.4016938              0.54568832082E-02
                186.29004992             0.40638409211E-01
                 42.251176346            0.18025593888
                 11.676557932            0.46315121755
                  3.5930506482           0.44087173314
            S   1   1.00
                  0.40245147363          1.0000000
            S   1   1.00
                  0.13090182668          1.0000000
            P   3   1.00
                  9.4680970621           0.38387871728E-01
                  2.0103545142           0.21117025112
                  0.54771004707          0.51328172114
            P   1   1.00
                  0.15268613795          1.0000000
            D   1   1.00
                  0.8000000              1.0000000
            ****
            -N     0
            S   5   1.00
               1712.8415853             -0.53934125305E-02
                257.64812677            -0.40221581118E-01
                 58.458245853           -0.17931144990
                 16.198367905           -0.46376317823
                  5.0052600809          -0.44171422662
            S   1   1.00
                  0.58731856571          1.0000000
            S   1   1.00
                  0.18764592253          1.0000000
            P   3   1.00
                 13.571470233           -0.40072398852E-01
                  2.9257372874          -0.21807045028
                  0.79927750754         -0.51294466049
            P   1   1.00
                  0.21954348034          1.0000000
            D   1   1.00
                  1.0000000              1.0000000
            ****
            -O     0
            S   5   1.00
               2266.1767785             -0.53431809926E-02
                340.87010191            -0.39890039230E-01
                 77.363135167           -0.17853911985
                 21.479644940           -0.46427684959
                  6.6589433124          -0.44309745172
            S   1   1.00
                  0.80975975668          1.0000000
            S   1   1.00
                  0.25530772234          1.0000000
            P   3   1.00
                 17.721504317            0.43394573193E-01
                  3.8635505440           0.23094120765
                  1.0480920883           0.51375311064
            P   1   1.00
                  0.27641544411          1.0000000
            D   1   1.00
                  1.2000000              1.0000000
            ****
            -F     0
            S   5   1.00
               2894.8325990             -0.53408255515E-02
                435.41939120            -0.39904258866E-01
                 98.843328866           -0.17912768038
                 27.485198001           -0.46758090825
                  8.5405498171          -0.44653131020
            S   1   1.00
                  1.0654578038           1.0000000
            S   1   1.00
                  0.33247346748          1.0000000
            P   3   1.00
                 22.696633924           -0.45212874436E-01
                  4.9872339257          -0.23754317067
                  1.3491613954          -0.51287353587
            P   1   1.00
                  0.34829881977          1.0000000
            D   1   1.00
                  1.4000000              1.0000000
            ****
            -S     0
            S   5   1.00
               9184.9303010             -0.22294387756E-02
               1381.5105503             -0.16683029937E-01
                313.87147580            -0.75262436116E-01
                 88.053870623           -0.19376827038
                 27.039914905           -0.17718020803
            S   3   1.00
                 45.648731303           -0.10736062573
                  4.9664522326           0.65066293018
                  2.0116242047           0.59712155354
            S   1   1.00
                  0.35661077013          1.0000000
            S   1   1.00
                  0.13507221477          1.0000000
            P   5   1.00
                261.98233439            -0.92729929822E-02
                 61.306894736           -0.66547669241E-01
                 19.103729887           -0.24828595903
                  6.6567720378          -0.48703847402
                  2.3959635161          -0.39337850312
            P   1   1.00
                  0.61776161679          1.0000000
            P   1   1.00
                  0.16993376871          1.0000000
            D   1   1.00
                  0.5500000              1.0000000
            D   1   1.00
                  2.9940000              1.0000000
            ****
            -Cl     0
            S   5   1.00
              10449.8275660              0.19708362484E-02
               1571.7365221              0.14754727977E-01
                357.12065523             0.66679112875E-01
                100.25185935             0.17228924084
                 30.812727554            0.15883786100
            S   3   1.00
                 51.923789434           -0.10009298909
                  5.7045760975           0.60841752753
                  2.3508376809           0.54352153355
            S   1   1.00
                  0.44605124672          1.0000000
            S   1   1.00
                  0.16848856190          1.0000000
            P   5   1.00
                307.66790569            -0.87801484118E-02
                 72.102015515           -0.63563355471E-01
                 22.532680262           -0.24016428276
                  7.8991765444          -0.47798866557
                  2.8767268321          -0.38515850005
            P   1   1.00
                  0.77459363955          1.0000000
            P   1   1.00
                  0.21037699698          1.0000000
            D   1   1.00
                  0.6500000              1.0000000
            D   1   1.00
                  3.6520000              1.0000000
            ****
            -Al     0
            S   5   1.00
               5887.5727030              0.13483347987E-02
                885.61225996             0.10071576809E-01
                201.13604899             0.45132454056E-01
                 56.284974674            0.11461268043
                 17.229551243            0.10159608943
            S   3   1.00
                 29.340249922            0.69347454208E-01
                  3.0439630420          -0.42528117679
                  1.1285539518          -0.41449832210
            S   1   1.00
                  0.14234175160          1.0000000
            S   1   1.00
                  0.54400192313E-01            1.0000000
            P   5   1.00
                145.11918809             0.63963373134E-02
                 33.717894833            0.44189359965E-01
                 10.369863083            0.15581575993
                  3.5135616036           0.28635286951
                  1.1980050273           0.22921423248
            P   1   1.00
                  0.26583005913          1.0000000
            P   1   1.00
                  0.71003361994E-01            1.0000000
            D   1   1.00
                  0.3000000              1.0000000
            D   1   1.00
                  1.1950000              1.0000000
            ****
            -Ti     0
            S   6   1.00
              42961.5121850              0.39127635355E-02
               6450.9759169              0.29969820489E-01
               1467.7210915              0.14836352707
                414.20997355             0.51347285324
                134.48715840             1.0335365483
                 46.122209796            0.77854233930
            S   3   1.00
                 89.447762543           -0.28385401259
                 10.223346060            1.6772785333
                  4.1353774271           1.2411928456
            S   3   1.00
                  6.7896181452          -0.78399994518E-02
                  1.1106730691           0.25495493019E-01
                  0.47565975578          0.16061172892E-01
            S   1   1.00
                  0.65986956934E-01            1.0000000
            S   1   1.00
                  0.25210342250E-01            1.0000000
            P   5   1.00
                522.03684782             0.19754179642E-01
                122.68649489             0.14460677619
                 38.572903611            0.54669004165
                 13.672169319            1.0531647540
                  5.0118529359           0.69111213363
            P   3   1.00
                  2.4131928282           0.75803437136
                  0.93252270050          1.3036241399
                  0.35429058390          0.53638653300
            P   1   1.00
                  0.1015610              1.0000000
            D   4   1.00
                 23.465125957            0.26536380115E-01
                  6.3332593832           0.13796453963
                  2.0766489946           0.35312644228
                  0.69027361954          0.48647124166
            D   1   1.00
                  0.21088738554          1.0000000
            ****
            -P     0
            S   5   1.00
               8002.4795106              0.57503489302E-02
               1203.6813590              0.43007628959E-01
                273.44227031             0.19363986252
                 76.655541517            0.49651693399
                 23.516927435            0.44983262479
            S   3   1.00
                 39.791683439            0.95188129789E-01
                  4.2770343323          -0.57649840368
                  1.6940256888          -0.54239583865
            S   1   1.00
                  0.27567674644          1.0000000
            S   1   1.00
                  0.10495590099          1.0000000
            P   5   1.00
                219.50755823             0.92100565257E-02
                 51.274155030            0.65409765745E-01
                 15.921595892            0.24033730279
                  5.5069913481           0.46318321788
                  1.9537719426           0.37392563382
            P   1   1.00
                  0.47803397932          1.0000000
            P   1   1.00
                  0.13657952621          1.0000000
            D   1   1.00
                  0.4500000              1.0000000
            D   1   1.00
                   2.5060000              1.0000000
            ****
 Initial command:
 /group/hpc-share/gaussian/2009D/g09/l1.exe "/scratch/gaussian/g_cis-mesno.com-835182.hn1.marqnet.mu.edu/Gau-27546.inp" -scrdir="/scratch/gaussian/g_cis-mesno.com-835182.hn1.marqnet.mu.edu/"
 Entering Link 1 = /group/hpc-share/gaussian/2009D/g09/l1.exe PID=     27550.
  
 Copyright (c) 1988,1990,1992,1993,1995,1998,2003,2009,2013,
            Gaussian, Inc.  All Rights Reserved.
  
 This is part of the Gaussian(R) 09 program.  It is based on
 the Gaussian(R) 03 system (copyright 2003, Gaussian, Inc.),
 the Gaussian(R) 98 system (copyright 1998, Gaussian, Inc.),
 the Gaussian(R) 94 system (copyright 1995, Gaussian, Inc.),
 the Gaussian 92(TM) system (copyright 1992, Gaussian, Inc.),
 the Gaussian 90(TM) system (copyright 1990, Gaussian, Inc.),
 the Gaussian 88(TM) system (copyright 1988, Gaussian, Inc.),
 the Gaussian 86(TM) system (copyright 1986, Carnegie Mellon
 University), and the Gaussian 82(TM) system (copyright 1983,
 Carnegie Mellon University). Gaussian is a federally registered
 trademark of Gaussian, Inc.
  
 This software contains proprietary and confidential information,
 including trade secrets, belonging to Gaussian, Inc.
  
 This software is provided under written license and may be
 used, copied, transmitted, or stored only in accord with that
 written license.
  
 The following legend is applicable only to US Government
 contracts under FAR:
  
                    RESTRICTED RIGHTS LEGEND
  
 Use, reproduction and disclosure by the US Government is
 subject to restrictions as set forth in subparagraphs (a)
 and (c) of the Commercial Computer Software - Restricted
 Rights clause in FAR 52.227-19.
  
 Gaussian, Inc.
 340 Quinnipiac St., Bldg. 40, Wallingford CT 06492
  
  
 ---------------------------------------------------------------
 Warning -- This program may not be used in any manner that
 competes with the business of Gaussian, Inc. or will provide
 assistance to any competitor of Gaussian, Inc.  The licensee
 of this program is prohibited from giving any competitor of
 Gaussian, Inc. access to this program.  By using this program,
 the user acknowledges that Gaussian, Inc. is engaged in the
 business of creating and licensing software in the field of
 computational chemistry and represents and warrants to the
 licensee that it is not a competitor of Gaussian, Inc. and that
 it will not use this program in any manner prohibited above.
 ---------------------------------------------------------------
  

 Cite this work as:
 Gaussian 09, Revision D.01,
 M. J. Frisch, G. W. Trucks, H. B. Schlegel, G. E. Scuseria, 
 M. A. Robb, J. R. Cheeseman, G. Scalmani, V. Barone, B. Mennucci, 
 G. A. Petersson, H. Nakatsuji, M. Caricato, X. Li, H. P. Hratchian, 
 A. F. Izmaylov, J. Bloino, G. Zheng, J. L. Sonnenberg, M. Hada, 
 M. Ehara, K. Toyota, R. Fukuda, J. Hasegawa, M. Ishida, T. Nakajima, 
 Y. Honda, O. Kitao, H. Nakai, T. Vreven, J. A. Montgomery, Jr., 
 J. E. Peralta, F. Ogliaro, M. Bearpark, J. J. Heyd, E. Brothers, 
 K. N. Kudin, V. N. Staroverov, T. Keith, R. Kobayashi, J. Normand, 
 K. Raghavachari, A. Rendell, J. C. Burant, S. S. Iyengar, J. Tomasi, 
 M. Cossi, N. Rega, J. M. Millam, M. Klene, J. E. Knox, J. B. Cross, 
 V. Bakken, C. Adamo, J. Jaramillo, R. Gomperts, R. E. Stratmann, 
 O. Yazyev, A. J. Austin, R. Cammi, C. Pomelli, J. W. Ochterski, 
 R. L. Martin, K. Morokuma, V. G. Zakrzewski, G. A. Voth, 
 P. Salvador, J. J. Dannenberg, S. Dapprich, A. D. Daniels, 
 O. Farkas, J. B. Foresman, J. V. Ortiz, J. Cioslowski, 
 and D. J. Fox, Gaussian, Inc., Wallingford CT, 2013.
 
 ******************************************
 Gaussian 09:  EM64L-G09RevD.01 24-Apr-2013
                14-Oct-2015 
 ******************************************
 %nproc=8
 Will use up to    8 processors via shared memory.
 %chk=cis-mesno.chk
 ------------------------------------------------------------
 #P PBE1PBE/gen scrf(pcm,solvent=diethylether) scf(tight) opt
 ------------------------------------------------------------
 1/14=-1,18=20,19=15,26=3,38=1/1,3;
 2/9=110,12=2,17=6,18=5,40=1/2;
 3/5=7,11=2,16=1,25=1,30=1,70=2201,71=1,72=8,74=-13/1,2,3;
 4//1;
 5/5=2,32=2,38=5,53=8/2;
 6/7=2,8=2,9=2,10=2,28=1/1;
 7//1,2,3,16;
 1/14=-1,18=20,19=15,26=3/3(2);
 2/9=110/2;
 99//99;
 2/9=110/2;
 3/5=7,6=1,11=2,16=1,25=1,30=1,70=2205,71=1,72=8,74=-13,82=7/1,2,3;
 4/5=5,16=3,69=1/1;
 5/5=2,32=2,38=5,53=8/2;
 7//1,2,3,16;
 1/14=-1,18=20,19=15,26=3/3(-5);
 2/9=110/2;
 6/7=2,8=2,9=2,10=2,19=2,28=1/1;
 99/9=1/99;
 Leave Link    1 at Wed Oct 14 11:16:27 2015, MaxMem=           0 cpu:         0.7
 (Enter /group/hpc-share/gaussian/2009D/g09/l101.exe)
 ---------
 cis-mesno
 ---------
 Symbolic Z-matrix:
 Charge =  0 Multiplicity = 1
 o
 n                    1    no2
 s                    2    sn3      1    sno3
 c                    3    cs4      1    cso4     2    dih4     0
 h                    4    hc5      3    hcs5     1    dih5     0
 h                    4    hc6      3    hcs6     5    dih6     0
 h                    4    hc7      3    hcs7     5    dih7     0
       Variables:
  no2                   1.4                      
  sn3                   1.625                    
  sno3                109.471                    
  cs4                   1.71                     
  cso4                109.471                    
  dih4                180.                       
  hc5                   1.089                    
  hcs5                109.471                    
  dih5                180.                       
  hc6                   1.089                    
  hcs6                109.471                    
  dih6                120.                       
  hc7                   1.089                    
  hcs7                109.471                    
  dih7                240.                       
 
     5 tetrahedral angles replaced.
 NAtoms=      7 NQM=        7 NQMF=       0 NMMI=      0 NMMIF=      0
                NMic=       0 NMicF=      0.
                    Isotopes and Nuclear Properties:
 (Nuclear quadrupole moments (NQMom) in fm**2, nuclear magnetic moments (NMagM)
  in nuclear magnetons)

  Atom         1           2           3           4           5           6           7
 IAtWgt=          16          14          32          12           1           1           1
 AtmWgt=  15.9949146  14.0030740  31.9720718  12.0000000   1.0078250   1.0078250   1.0078250
 NucSpn=           0           2           0           0           1           1           1
 AtZEff=   0.0000000   0.0000000   0.0000000   0.0000000   0.0000000   0.0000000   0.0000000
 NQMom=    0.0000000   2.0440000   0.0000000   0.0000000   0.0000000   0.0000000   0.0000000
 NMagM=    0.0000000   0.4037610   0.0000000   0.0000000   2.7928460   2.7928460   2.7928460
 AtZNuc=   8.0000000   7.0000000  16.0000000   6.0000000   1.0000000   1.0000000   1.0000000
 Leave Link  101 at Wed Oct 14 11:16:27 2015, MaxMem=    33554432 cpu:         1.1
 (Enter /group/hpc-share/gaussian/2009D/g09/l103.exe)

 GradGradGradGradGradGradGradGradGradGradGradGradGradGradGradGradGradGrad
 Berny optimization.
 Initialization pass.
                           ----------------------------
                           !    Initial Parameters    !
                           ! (Angstroms and Degrees)  !
 --------------------------                            --------------------------
 ! Name  Definition              Value          Derivative Info.                !
 --------------------------------------------------------------------------------
 ! R1    R(1,2)                  1.4            estimate D2E/DX2                !
 ! R2    R(2,3)                  1.625          estimate D2E/DX2                !
 ! R3    R(3,4)                  1.71           estimate D2E/DX2                !
 ! R4    R(4,5)                  1.089          estimate D2E/DX2                !
 ! R5    R(4,6)                  1.089          estimate D2E/DX2                !
 ! R6    R(4,7)                  1.089          estimate D2E/DX2                !
 ! A1    A(1,2,3)              109.4712         estimate D2E/DX2                !
 ! A2    A(2,3,4)              141.7249         estimate D2E/DX2                !
 ! A3    A(3,4,5)              109.4712         estimate D2E/DX2                !
 ! A4    A(3,4,6)              109.4712         estimate D2E/DX2                !
 ! A5    A(3,4,7)              109.4712         estimate D2E/DX2                !
 ! A6    A(5,4,6)              109.4712         estimate D2E/DX2                !
 ! A7    A(5,4,7)              109.4712         estimate D2E/DX2                !
 ! A8    A(6,4,7)              109.4712         estimate D2E/DX2                !
 ! D1    D(1,2,3,4)              0.0            estimate D2E/DX2                !
 ! D2    D(2,3,4,5)            180.0            estimate D2E/DX2                !
 ! D3    D(2,3,4,6)            -60.0            estimate D2E/DX2                !
 ! D4    D(2,3,4,7)             60.0            estimate D2E/DX2                !
 --------------------------------------------------------------------------------
 Trust Radius=3.00D-01 FncErr=1.00D-07 GrdErr=1.00D-06
 Number of steps in this run=     28 maximum allowed number of steps=    100.
 GradGradGradGradGradGradGradGradGradGradGradGradGradGradGradGradGradGrad

 Leave Link  103 at Wed Oct 14 11:16:27 2015, MaxMem=    33554432 cpu:         0.0
 (Enter /group/hpc-share/gaussian/2009D/g09/l202.exe)
                          Input orientation:                          
 ---------------------------------------------------------------------
 Center     Atomic      Atomic             Coordinates (Angstroms)
 Number     Number       Type             X           Y           Z
 ---------------------------------------------------------------------
      1          8           0        0.000000    0.000000    0.000000
      2          7           0        0.000000    0.000000    1.400000
      3         16           0        1.532065    0.000000    1.941667
      4          6           0        3.150798    0.000000    1.390484
      5          1           0        3.825365    0.000000    2.245399
      6          1           0        3.328953   -0.889165    0.787518
      7          1           0        3.328953    0.889165    0.787518
 ---------------------------------------------------------------------
                    Distance matrix (angstroms):
                    1          2          3          4          5
     1  O    0.000000
     2  N    1.400000   0.000000
     3  S    2.473316   1.625000   0.000000
     4  C    3.443976   3.150812   1.710000   0.000000
     5  H    4.435678   3.917668   2.313327   1.089000   0.000000
     6  H    3.534505   3.499668   2.313327   1.089000   1.778330
     7  H    3.534505   3.499668   2.313327   1.089000   1.778330
                    6          7
     6  H    0.000000
     7  H    1.778330   0.000000
 Stoichiometry    CH3NOS
 Framework group  CS[SG(CHNOS),X(H2)]
 Deg. of freedom    10
 Full point group                 CS      NOp   2
 Largest Abelian subgroup         CS      NOp   2
 Largest concise Abelian subgroup CS      NOp   2
                         Standard orientation:                         
 ---------------------------------------------------------------------
 Center     Atomic      Atomic             Coordinates (Angstroms)
 Number     Number       Type             X           Y           Z
 ---------------------------------------------------------------------
      1          8           0       -0.910332   -1.656725    0.000000
      2          7           0       -1.312144   -0.315626    0.000000
      3         16           0        0.000000    0.642968    0.000000
      4          6           0        1.708824    0.579565    0.000000
      5          1           0        2.109643    1.592118    0.000000
      6          1           0        2.052540    0.053099    0.889165
      7          1           0        2.052540    0.053099   -0.889165
 ---------------------------------------------------------------------
 Rotational constants (GHZ):     16.7209568      4.1114492      3.3701594
 Leave Link  202 at Wed Oct 14 11:16:27 2015, MaxMem=    33554432 cpu:         0.0
 (Enter /group/hpc-share/gaussian/2009D/g09/l301.exe)
 General basis read from cards:  (5D, 7F)
 Centers:       5      6      7
 S 3 1.00
     Exponent=  1.3010701000D+01 Coefficients=  1.9682158000D-02
     Exponent=  1.9622572000D+00 Coefficients=  1.3796524000D-01
     Exponent=  4.4453796000D-01 Coefficients=  4.7831935000D-01
 S 1 1.00
     Exponent=  1.2194962000D-01 Coefficients=  1.0000000000D+00
 ****
 Centers:       4
 S 5 1.00
     Exponent=  1.2384016938D+03 Coefficients=  5.4568832082D-03
     Exponent=  1.8629004992D+02 Coefficients=  4.0638409211D-02
     Exponent=  4.2251176346D+01 Coefficients=  1.8025593888D-01
     Exponent=  1.1676557932D+01 Coefficients=  4.6315121755D-01
     Exponent=  3.5930506482D+00 Coefficients=  4.4087173314D-01
 S 1 1.00
     Exponent=  4.0245147363D-01 Coefficients=  1.0000000000D+00
 S 1 1.00
     Exponent=  1.3090182668D-01 Coefficients=  1.0000000000D+00
 P 3 1.00
     Exponent=  9.4680970621D+00 Coefficients=  3.8387871728D-02
     Exponent=  2.0103545142D+00 Coefficients=  2.1117025112D-01
     Exponent=  5.4771004707D-01 Coefficients=  5.1328172114D-01
 P 1 1.00
     Exponent=  1.5268613795D-01 Coefficients=  1.0000000000D+00
 D 1 1.00
     Exponent=  8.0000000000D-01 Coefficients=  1.0000000000D+00
 ****
 Centers:       2
 S 5 1.00
     Exponent=  1.7128415853D+03 Coefficients= -5.3934125305D-03
     Exponent=  2.5764812677D+02 Coefficients= -4.0221581118D-02
     Exponent=  5.8458245853D+01 Coefficients= -1.7931144990D-01
     Exponent=  1.6198367905D+01 Coefficients= -4.6376317823D-01
     Exponent=  5.0052600809D+00 Coefficients= -4.4171422662D-01
 S 1 1.00
     Exponent=  5.8731856571D-01 Coefficients=  1.0000000000D+00
 S 1 1.00
     Exponent=  1.8764592253D-01 Coefficients=  1.0000000000D+00
 P 3 1.00
     Exponent=  1.3571470233D+01 Coefficients= -4.0072398852D-02
     Exponent=  2.9257372874D+00 Coefficients= -2.1807045028D-01
     Exponent=  7.9927750754D-01 Coefficients= -5.1294466049D-01
 P 1 1.00
     Exponent=  2.1954348034D-01 Coefficients=  1.0000000000D+00
 D 1 1.00
     Exponent=  1.0000000000D+00 Coefficients=  1.0000000000D+00
 ****
 Centers:       1
 S 5 1.00
     Exponent=  2.2661767785D+03 Coefficients= -5.3431809926D-03
     Exponent=  3.4087010191D+02 Coefficients= -3.9890039230D-02
     Exponent=  7.7363135167D+01 Coefficients= -1.7853911985D-01
     Exponent=  2.1479644940D+01 Coefficients= -4.6427684959D-01
     Exponent=  6.6589433124D+00 Coefficients= -4.4309745172D-01
 S 1 1.00
     Exponent=  8.0975975668D-01 Coefficients=  1.0000000000D+00
 S 1 1.00
     Exponent=  2.5530772234D-01 Coefficients=  1.0000000000D+00
 P 3 1.00
     Exponent=  1.7721504317D+01 Coefficients=  4.3394573193D-02
     Exponent=  3.8635505440D+00 Coefficients=  2.3094120765D-01
     Exponent=  1.0480920883D+00 Coefficients=  5.1375311064D-01
 P 1 1.00
     Exponent=  2.7641544411D-01 Coefficients=  1.0000000000D+00
 D 1 1.00
     Exponent=  1.2000000000D+00 Coefficients=  1.0000000000D+00
 ****
 Centers:       3
 S 5 1.00
     Exponent=  9.1849303010D+03 Coefficients= -2.2294387756D-03
     Exponent=  1.3815105503D+03 Coefficients= -1.6683029937D-02
     Exponent=  3.1387147580D+02 Coefficients= -7.5262436116D-02
     Exponent=  8.8053870623D+01 Coefficients= -1.9376827038D-01
     Exponent=  2.7039914905D+01 Coefficients= -1.7718020803D-01
 S 3 1.00
     Exponent=  4.5648731303D+01 Coefficients= -1.0736062573D-01
     Exponent=  4.9664522326D+00 Coefficients=  6.5066293018D-01
     Exponent=  2.0116242047D+00 Coefficients=  5.9712155354D-01
 S 1 1.00
     Exponent=  3.5661077013D-01 Coefficients=  1.0000000000D+00
 S 1 1.00
     Exponent=  1.3507221477D-01 Coefficients=  1.0000000000D+00
 P 5 1.00
     Exponent=  2.6198233439D+02 Coefficients= -9.2729929822D-03
     Exponent=  6.1306894736D+01 Coefficients= -6.6547669241D-02
     Exponent=  1.9103729887D+01 Coefficients= -2.4828595903D-01
     Exponent=  6.6567720378D+00 Coefficients= -4.8703847402D-01
     Exponent=  2.3959635161D+00 Coefficients= -3.9337850312D-01
 P 1 1.00
     Exponent=  6.1776161679D-01 Coefficients=  1.0000000000D+00
 P 1 1.00
     Exponent=  1.6993376871D-01 Coefficients=  1.0000000000D+00
 D 1 1.00
     Exponent=  5.5000000000D-01 Coefficients=  1.0000000000D+00
 D 1 1.00
     Exponent=  2.9940000000D+00 Coefficients=  1.0000000000D+00
 ****
 Ernie: Thresh=  0.10000D-02 Tol=  0.10000D-05 Strict=F.
 There are    55 symmetry adapted cartesian basis functions of A'  symmetry.
 There are    21 symmetry adapted cartesian basis functions of A"  symmetry.
 There are    50 symmetry adapted basis functions of A'  symmetry.
 There are    21 symmetry adapted basis functions of A"  symmetry.
    71 basis functions,   130 primitive gaussians,    76 cartesian basis functions
    20 alpha electrons       20 beta electrons
       nuclear repulsion energy       156.1950372443 Hartrees.
 IExCor= 1009 DFT=T Ex+Corr=PBE1PBE ExCW=0 ScaHFX=  0.250000
 ScaDFX=  0.750000  0.750000  1.000000  1.000000 ScalE2=  1.000000  1.000000
 IRadAn=      0 IRanWt=     -1 IRanGd=            0 ICorTp=0 IEmpDi=  4
 NAtoms=    7 NActive=    7 NUniq=    6 SFac= 1.36D+00 NAtFMM=   60 NAOKFM=F Big=F
 Integral buffers will be    131072 words long.
 Raffenetti 2 integral format.
 Two-electron integral symmetry is turned on.
 ------------------------------------------------------------------------------
 Polarizable Continuum Model (PCM)
 =================================
 Model                : PCM (using non-symmetric T matrix).
 Atomic radii         : UFF (Universal Force Field).
 Polarization charges : Total charges.
 Charge compensation  : None.
 Solution method      : On-the-fly selection.
 Cavity type          : Scaled VdW (van der Waals Surface) (Alpha=1.100).
 Cavity algorithm     : GePol (No added spheres)
                        Default sphere list used, NSphG=    7.
                        Lebedev-Laikov grids with approx.  5.0 points / Ang**2.
                        Smoothing algorithm: Karplus/York (Gamma=1.0000).
                        Polarization charges: spherical gaussians, with
                                              point-specific exponents (IZeta= 3).
                        Self-potential: point-specific (ISelfS= 7).
                        Self-field    : sphere-specific E.n sum rule (ISelfD= 2).
 1st derivatives      : Analytical E(r).r(x)/FMM algorithm (CHGder, D1EAlg=3).
                        Cavity 1st derivative terms included.
 Solvent              : DiethylEther, Eps=   4.240000 Eps(inf)=   1.829527
 ------------------------------------------------------------------------------
 Spheres list:
 ISph  on   Nord     Re0    Alpha      Xe            Ye            Ze
    1   O      1    1.7500  1.100     -0.910332     -1.656725      0.000000
    2   N      2    1.8300  1.100     -1.312144     -0.315626      0.000000
    3   S      3    2.0175  1.100      0.000000      0.642968      0.000000
    4   C      4    1.9255  1.100      1.708824      0.579565      0.000000
    5   H      5    1.4430  1.100      2.109643      1.592118      0.000000
    6   H      6    1.4430  1.100      2.052540      0.053099      0.889165
    7   H      7    1.4430  1.100      2.052540      0.053099     -0.889165
 ------------------------------------------------------------------------------
 GePol: Number of generator spheres                  =       7
 GePol: Total number of spheres                      =       7
 GePol: Number of exposed spheres                    =       7 (100.00%)
 GePol: Number of points                             =     908
 GePol: Average weight of points                     =       0.13
 GePol: Minimum weight of points                     =   0.11D-07
 GePol: Maximum weight of points                     =    0.20305
 GePol: Number of points with low weight             =      24
 GePol: Fraction of low-weight points (<1% of avg)   =       2.64%
 GePol: Cavity surface area                          =    122.008 Ang**2
 GePol: Cavity volume                                =    105.220 Ang**3
 Leave Link  301 at Wed Oct 14 11:16:28 2015, MaxMem=    33554432 cpu:         1.5
 (Enter /group/hpc-share/gaussian/2009D/g09/l302.exe)
 NPDir=0 NMtPBC=     1 NCelOv=     1 NCel=       1 NClECP=     1 NCelD=      1
         NCelK=      1 NCelE2=     1 NClLst=     1 CellRange=     0.0.
 One-electron integrals computed using PRISM.
 One-electron integral symmetry used in STVInt
 NBasis=    71 RedAO= T EigKep=  1.04D-02  NBF=    50    21
 NBsUse=    71 1.00D-06 EigRej= -1.00D+00 NBFU=    50    21
 Precomputing XC quadrature grid using
 IXCGrd= 4 IRadAn=           0 IRanWt=          -1 IRanGd=           0 AccXCQ= 0.00D+00.
 Generated NRdTot=       0 NPtTot=           0 NUsed=           0 NTot=          32
 NSgBfM=    76    76    76    76    76 MxSgAt=     7 MxSgA2=     7.
 Leave Link  302 at Wed Oct 14 11:16:28 2015, MaxMem=    33554432 cpu:         1.0
 (Enter /group/hpc-share/gaussian/2009D/g09/l303.exe)
 DipDrv:  MaxL=1.
 Leave Link  303 at Wed Oct 14 11:16:28 2015, MaxMem=    33554432 cpu:         0.2
 (Enter /group/hpc-share/gaussian/2009D/g09/l401.exe)
 ExpMin= 1.22D-01 ExpMax= 9.18D+03 ExpMxC= 1.38D+03 IAcc=1 IRadAn=         1 AccDes= 0.00D+00
 Harris functional with IExCor= 1009 and IRadAn=       1 diagonalized for initial guess.
 HarFok:  IExCor= 1009 AccDes= 0.00D+00 IRadAn=         1 IDoV= 1 UseB2=F ITyADJ=14
 ICtDFT=  3500011 ScaDFX=  1.000000  1.000000  1.000000  1.000000
 FoFCou: FMM=F IPFlag=           0 FMFlag=      100000 FMFlg1=           0
         NFxFlg=           0 DoJE=T BraDBF=F KetDBF=T FulRan=T
         wScrn=  0.000000 ICntrl=     500 IOpCl=  0 I1Cent=   200000004 NGrid=           0
         NMat0=    1 NMatS0=      1 NMatT0=    0 NMatD0=    1 NMtDS0=    0 NMtDT0=    0
 Petite list used in FoFCou.
 Harris En= -567.328814006174    
 JPrj=0 DoOrth=F DoCkMO=F.
 Initial guess orbital symmetries:
       Occupied  (A') (A') (A') (A') (A') (A') (A') (A") (A') (A')
                 (A') (A') (A') (A") (A') (A') (A") (A') (A") (A')
       Virtual   (A") (A') (A') (A') (A") (A') (A') (A') (A") (A')
                 (A') (A") (A') (A') (A") (A') (A') (A") (A') (A")
                 (A') (A') (A') (A") (A') (A') (A") (A') (A') (A')
                 (A') (A") (A') (A") (A') (A") (A') (A') (A") (A')
                 (A') (A") (A') (A") (A') (A') (A") (A') (A") (A')
                 (A')
 The electronic state of the initial guess is 1-A'.
 Leave Link  401 at Wed Oct 14 11:16:28 2015, MaxMem=    33554432 cpu:         1.2
 (Enter /group/hpc-share/gaussian/2009D/g09/l502.exe)
 Closed shell SCF:
 Using DIIS extrapolation, IDIIS=  1040.
 Integral symmetry usage will be decided dynamically.
 Keep R1 ints in memory in symmetry-blocked form, NReq=7161776.
 IVT=       37168 IEndB=       37168 NGot=    33554432 MDV=    31824708
 LenX=    31824708 LenY=    31818491
 Requested convergence on RMS density matrix=1.00D-08 within 128 cycles.
 Requested convergence on MAX density matrix=1.00D-06.
 Requested convergence on             energy=1.00D-06.
 No special actions if energy rises.
 FoFCou: FMM=F IPFlag=           0 FMFlag=           0 FMFlg1=           0
         NFxFlg=           0 DoJE=F BraDBF=F KetDBF=F FulRan=T
         wScrn=  0.000000 ICntrl=     600 IOpCl=  0 I1Cent=           0 NGrid=           0
         NMat0=    1 NMatS0=   2556 NMatT0=    0 NMatD0=    1 NMtDS0=    0 NMtDT0=    0
 Petite list used in FoFCou.

 Cycle   1  Pass 1  IDiag  1:
 Inv3:  Mode=1 IEnd=     2473392.
 Iteration    1 A*A^-1 deviation from unit magnitude is 5.55D-15 for    471.
 Iteration    1 A*A^-1 deviation from orthogonality  is 2.99D-15 for    781    517.
 Iteration    1 A^-1*A deviation from unit magnitude is 4.77D-15 for    441.
 Iteration    1 A^-1*A deviation from orthogonality  is 9.34D-14 for    906    798.
 E= -567.147471872612    
 DIIS: error= 4.01D-02 at cycle   1 NSaved=   1.
 NSaved= 1 IEnMin= 1 EnMin= -567.147471872612     IErMin= 1 ErrMin= 4.01D-02
 ErrMax= 4.01D-02  0.00D+00 EMaxC= 1.00D-01 BMatC= 1.84D-01 BMatP= 1.84D-01
 IDIUse=3 WtCom= 5.99D-01 WtEn= 4.01D-01
 Coeff-Com:  0.100D+01
 Coeff-En:   0.100D+01
 Coeff:      0.100D+01
 Gap=     0.050 Goal=   None    Shift=    0.000
 GapD=    0.050 DampG=0.500 DampE=0.500 DampFc=0.2500 IDamp=-1.
 Damping current iteration by 2.50D-01
 RMSDP=2.74D-02 MaxDP=3.44D-01              OVMax= 7.31D-01

 Cycle   2  Pass 1  IDiag  1:
 E= -567.132114775051     Delta-E=        0.015357097561 Rises=F Damp=T
 DIIS: error= 1.69D-02 at cycle   2 NSaved=   2.
 NSaved= 2 IEnMin= 1 EnMin= -567.147471872612     IErMin= 2 ErrMin= 1.69D-02
 ErrMax= 1.69D-02  0.00D+00 EMaxC= 1.00D-01 BMatC= 3.19D-02 BMatP= 1.84D-01
 IDIUse=3 WtCom= 8.31D-01 WtEn= 1.69D-01
 Coeff-Com:  0.119D+00 0.881D+00
 Coeff-En:   0.545D+00 0.455D+00
 Coeff:      0.191D+00 0.809D+00
 Gap=     0.037 Goal=   None    Shift=    0.000
 RMSDP=6.83D-03 MaxDP=9.57D-02 DE= 1.54D-02 OVMax= 3.11D-01

 Cycle   3  Pass 1  IDiag  1:
 E= -567.258348348063     Delta-E=       -0.126233573012 Rises=F Damp=F
 DIIS: error= 2.45D-02 at cycle   3 NSaved=   3.
 NSaved= 3 IEnMin= 3 EnMin= -567.258348348063     IErMin= 2 ErrMin= 1.69D-02
 ErrMax= 2.45D-02  0.00D+00 EMaxC= 1.00D-01 BMatC= 6.02D-02 BMatP= 3.19D-02
 IDIUse=2 WtCom= 0.00D+00 WtEn= 1.00D+00
 Coeff-En:   0.000D+00 0.000D+00 0.100D+01
 Coeff:      0.000D+00 0.000D+00 0.100D+01
 Gap=     0.092 Goal=   None    Shift=    0.000
 RMSDP=1.09D-02 MaxDP=2.16D-01 DE=-1.26D-01 OVMax= 4.54D-01

 Cycle   4  Pass 1  IDiag  1:
 E= -566.886919931086     Delta-E=        0.371428416976 Rises=F Damp=F
 DIIS: error= 6.82D-02 at cycle   4 NSaved=   4.
 NSaved= 4 IEnMin= 3 EnMin= -567.258348348063     IErMin= 2 ErrMin= 1.69D-02
 ErrMax= 6.82D-02  0.00D+00 EMaxC= 1.00D-01 BMatC= 4.59D-01 BMatP= 3.19D-02
 IDIUse=2 WtCom= 0.00D+00 WtEn= 1.00D+00
 EnCoef did     3 forward-backward iterations
 Coeff-En:   0.326D-02 0.000D+00 0.823D+00 0.174D+00
 Coeff:      0.326D-02 0.000D+00 0.823D+00 0.174D+00
 Gap=     0.119 Goal=   None    Shift=    0.000
 RMSDP=6.80D-03 MaxDP=1.29D-01 DE= 3.71D-01 OVMax= 2.66D-01

 Cycle   5  Pass 1  IDiag  1:
 E= -567.292750148076     Delta-E=       -0.405830216989 Rises=F Damp=F
 DIIS: error= 1.73D-02 at cycle   5 NSaved=   5.
 NSaved= 5 IEnMin= 5 EnMin= -567.292750148076     IErMin= 2 ErrMin= 1.69D-02
 ErrMax= 1.73D-02  0.00D+00 EMaxC= 1.00D-01 BMatC= 2.88D-02 BMatP= 3.19D-02
 IDIUse=3 WtCom= 8.27D-01 WtEn= 1.73D-01
 Coeff-Com: -0.717D-01 0.169D+00 0.372D+00-0.677D-01 0.598D+00
 Coeff-En:   0.000D+00 0.000D+00 0.342D+00 0.000D+00 0.658D+00
 Coeff:     -0.593D-01 0.140D+00 0.367D+00-0.560D-01 0.609D+00
 Gap=     0.149 Goal=   None    Shift=    0.000
 RMSDP=2.43D-03 MaxDP=4.43D-02 DE=-4.06D-01 OVMax= 7.93D-02

 Cycle   6  Pass 1  IDiag  1:
 E= -567.319686685047     Delta-E=       -0.026936536971 Rises=F Damp=F
 DIIS: error= 3.25D-03 at cycle   6 NSaved=   6.
 NSaved= 6 IEnMin= 6 EnMin= -567.319686685047     IErMin= 6 ErrMin= 3.25D-03
 ErrMax= 3.25D-03  0.00D+00 EMaxC= 1.00D-01 BMatC= 7.49D-04 BMatP= 2.88D-02
 IDIUse=3 WtCom= 9.67D-01 WtEn= 3.25D-02
 Coeff-Com: -0.515D-01 0.803D-01 0.177D+00-0.379D-01 0.354D+00 0.477D+00
 Coeff-En:   0.000D+00 0.000D+00 0.000D+00 0.000D+00 0.000D+00 0.100D+01
 Coeff:     -0.498D-01 0.777D-01 0.172D+00-0.366D-01 0.343D+00 0.494D+00
 Gap=     0.150 Goal=   None    Shift=    0.000
 RMSDP=4.68D-04 MaxDP=8.24D-03 DE=-2.69D-02 OVMax= 2.19D-02

 Cycle   7  Pass 1  IDiag  1:
 E= -567.320454423923     Delta-E=       -0.000767738876 Rises=F Damp=F
 DIIS: error= 1.25D-03 at cycle   7 NSaved=   7.
 NSaved= 7 IEnMin= 7 EnMin= -567.320454423923     IErMin= 7 ErrMin= 1.25D-03
 ErrMax= 1.25D-03  0.00D+00 EMaxC= 1.00D-01 BMatC= 1.02D-04 BMatP= 7.49D-04
 IDIUse=3 WtCom= 9.87D-01 WtEn= 1.25D-02
 Coeff-Com: -0.158D-01 0.572D-02-0.913D-02-0.172D-02 0.339D-01 0.379D+00
 Coeff-Com:  0.608D+00
 Coeff-En:   0.000D+00 0.000D+00 0.000D+00 0.000D+00 0.000D+00 0.000D+00
 Coeff-En:   0.100D+01
 Coeff:     -0.156D-01 0.564D-02-0.901D-02-0.170D-02 0.335D-01 0.374D+00
 Coeff:      0.613D+00
 Gap=     0.151 Goal=   None    Shift=    0.000
 RMSDP=1.91D-04 MaxDP=2.59D-03 DE=-7.68D-04 OVMax= 5.37D-03

 Cycle   8  Pass 1  IDiag  1:
 E= -567.320562633086     Delta-E=       -0.000108209164 Rises=F Damp=F
 DIIS: error= 1.31D-04 at cycle   8 NSaved=   8.
 NSaved= 8 IEnMin= 8 EnMin= -567.320562633086     IErMin= 8 ErrMin= 1.31D-04
 ErrMax= 1.31D-04  0.00D+00 EMaxC= 1.00D-01 BMatC= 1.99D-06 BMatP= 1.02D-04
 IDIUse=3 WtCom= 9.99D-01 WtEn= 1.31D-03
 Coeff-Com:  0.316D-02-0.349D-02-0.644D-02-0.476D-03-0.115D-01-0.304D-01
 Coeff-Com:  0.764D-02 0.104D+01
 Coeff-En:   0.000D+00 0.000D+00 0.000D+00 0.000D+00 0.000D+00 0.000D+00
 Coeff-En:   0.000D+00 0.100D+01
 Coeff:      0.316D-02-0.349D-02-0.643D-02-0.476D-03-0.115D-01-0.304D-01
 Coeff:      0.763D-02 0.104D+01
 Gap=     0.151 Goal=   None    Shift=    0.000
 RMSDP=6.32D-05 MaxDP=1.07D-03 DE=-1.08D-04 OVMax= 1.95D-03

 Cycle   9  Pass 1  IDiag  1:
 E= -567.320565446529     Delta-E=       -0.000002813443 Rises=F Damp=F
 DIIS: error= 1.29D-04 at cycle   9 NSaved=   9.
 NSaved= 9 IEnMin= 9 EnMin= -567.320565446529     IErMin= 9 ErrMin= 1.29D-04
 ErrMax= 1.29D-04  0.00D+00 EMaxC= 1.00D-01 BMatC= 1.46D-06 BMatP= 1.99D-06
 IDIUse=3 WtCom= 9.99D-01 WtEn= 1.29D-03
 Coeff-Com:  0.241D-02-0.261D-02 0.107D-02-0.571D-03-0.414D-03-0.164D-01
 Coeff-Com: -0.195D-01 0.169D+00 0.867D+00
 Coeff-En:   0.000D+00 0.000D+00 0.000D+00 0.000D+00 0.000D+00 0.000D+00
 Coeff-En:   0.000D+00 0.000D+00 0.100D+01
 Coeff:      0.241D-02-0.260D-02 0.106D-02-0.571D-03-0.414D-03-0.164D-01
 Coeff:     -0.195D-01 0.169D+00 0.867D+00
 Gap=     0.151 Goal=   None    Shift=    0.000
 RMSDP=1.48D-05 MaxDP=2.30D-04 DE=-2.81D-06 OVMax= 4.62D-04

 Cycle  10  Pass 1  IDiag  1:
 E= -567.320566401977     Delta-E=       -0.000000955447 Rises=F Damp=F
 DIIS: error= 7.78D-05 at cycle  10 NSaved=  10.
 NSaved=10 IEnMin=10 EnMin= -567.320566401977     IErMin=10 ErrMin= 7.78D-05
 ErrMax= 7.78D-05  0.00D+00 EMaxC= 1.00D-01 BMatC= 4.73D-07 BMatP= 1.46D-06
 IDIUse=1 WtCom= 1.00D+00 WtEn= 0.00D+00
 Coeff-Com:  0.211D-03-0.250D-03 0.888D-03-0.227D-03 0.152D-02 0.129D-01
 Coeff-Com:  0.146D-01-0.880D-01-0.139D+00 0.120D+01
 Coeff:      0.211D-03-0.250D-03 0.888D-03-0.227D-03 0.152D-02 0.129D-01
 Coeff:      0.146D-01-0.880D-01-0.139D+00 0.120D+01
 Gap=     0.151 Goal=   None    Shift=    0.000
 RMSDP=7.85D-06 MaxDP=1.39D-04 DE=-9.55D-07 OVMax= 2.55D-04

 Cycle  11  Pass 1  IDiag  1:
 E= -567.320566832507     Delta-E=       -0.000000430530 Rises=F Damp=F
 DIIS: error= 1.10D-05 at cycle  11 NSaved=  11.
 NSaved=11 IEnMin=11 EnMin= -567.320566832507     IErMin=11 ErrMin= 1.10D-05
 ErrMax= 1.10D-05  0.00D+00 EMaxC= 1.00D-01 BMatC= 1.04D-08 BMatP= 4.73D-07
 IDIUse=1 WtCom= 1.00D+00 WtEn= 0.00D+00
 Coeff-Com: -0.970D-05-0.345D-04-0.116D-03 0.245D-04-0.979D-04 0.467D-02
 Coeff-Com:  0.506D-02-0.311D-01-0.115D+00 0.266D+00 0.870D+00
 Coeff:     -0.970D-05-0.345D-04-0.116D-03 0.245D-04-0.979D-04 0.467D-02
 Coeff:      0.506D-02-0.311D-01-0.115D+00 0.266D+00 0.870D+00
 Gap=     0.151 Goal=   None    Shift=    0.000
 RMSDP=1.56D-06 MaxDP=2.54D-05 DE=-4.31D-07 OVMax= 3.97D-05

 Cycle  12  Pass 1  IDiag  1:
 E= -567.320566842106     Delta-E=       -0.000000009599 Rises=F Damp=F
 DIIS: error= 5.76D-07 at cycle  12 NSaved=  12.
 NSaved=12 IEnMin=12 EnMin= -567.320566842106     IErMin=12 ErrMin= 5.76D-07
 ErrMax= 5.76D-07  0.00D+00 EMaxC= 1.00D-01 BMatC= 6.88D-11 BMatP= 1.04D-08
 IDIUse=1 WtCom= 1.00D+00 WtEn= 0.00D+00
 Coeff-Com: -0.600D-05-0.551D-06-0.644D-04 0.826D-05-0.682D-04 0.897D-03
 Coeff-Com:  0.877D-03-0.243D-02-0.231D-01 0.231D-01 0.284D+00 0.716D+00
 Coeff:     -0.600D-05-0.551D-06-0.644D-04 0.826D-05-0.682D-04 0.897D-03
 Coeff:      0.877D-03-0.243D-02-0.231D-01 0.231D-01 0.284D+00 0.716D+00
 Gap=     0.151 Goal=   None    Shift=    0.000
 RMSDP=2.22D-07 MaxDP=3.71D-06 DE=-9.60D-09 OVMax= 5.38D-06

 Cycle  13  Pass 1  IDiag  1:
 E= -567.320566842186     Delta-E=       -0.000000000080 Rises=F Damp=F
 DIIS: error= 3.25D-07 at cycle  13 NSaved=  13.
 NSaved=13 IEnMin=13 EnMin= -567.320566842186     IErMin=13 ErrMin= 3.25D-07
 ErrMax= 3.25D-07  0.00D+00 EMaxC= 1.00D-01 BMatC= 8.80D-12 BMatP= 6.88D-11
 IDIUse=1 WtCom= 1.00D+00 WtEn= 0.00D+00
 Coeff-Com: -0.227D-05 0.212D-05-0.418D-05 0.717D-06-0.400D-06-0.694D-04
 Coeff-Com: -0.140D-03 0.751D-03 0.274D-02-0.789D-02-0.405D-03 0.522D-01
 Coeff-Com:  0.953D+00
 Coeff:     -0.227D-05 0.212D-05-0.418D-05 0.717D-06-0.400D-06-0.694D-04
 Coeff:     -0.140D-03 0.751D-03 0.274D-02-0.789D-02-0.405D-03 0.522D-01
 Coeff:      0.953D+00
 Gap=     0.151 Goal=   None    Shift=    0.000
 RMSDP=4.52D-08 MaxDP=7.15D-07 DE=-8.05D-11 OVMax= 1.26D-06

 Cycle  14  Pass 1  IDiag  1:
 E= -567.320566842187     Delta-E=       -0.000000000001 Rises=F Damp=F
 DIIS: error= 8.55D-08 at cycle  14 NSaved=  14.
 NSaved=14 IEnMin=14 EnMin= -567.320566842187     IErMin=14 ErrMin= 8.55D-08
 ErrMax= 8.55D-08  0.00D+00 EMaxC= 1.00D-01 BMatC= 7.06D-13 BMatP= 8.80D-12
 IDIUse=1 WtCom= 1.00D+00 WtEn= 0.00D+00
 Coeff-Com: -0.497D-06 0.962D-06 0.590D-06-0.877D-07 0.911D-06-0.260D-04
 Coeff-Com: -0.526D-04 0.116D-03 0.962D-03-0.100D-02-0.635D-02-0.128D-01
 Coeff-Com:  0.676D-01 0.952D+00
 Coeff:     -0.497D-06 0.962D-06 0.590D-06-0.877D-07 0.911D-06-0.260D-04
 Coeff:     -0.526D-04 0.116D-03 0.962D-03-0.100D-02-0.635D-02-0.128D-01
 Coeff:      0.676D-01 0.952D+00
 Gap=     0.151 Goal=   None    Shift=    0.000
 RMSDP=7.57D-09 MaxDP=1.09D-07 DE=-1.36D-12 OVMax= 1.73D-07

 Error on total polarization charges =  0.00354
 SCF Done:  E(RPBE1PBE) =  -567.320566842     A.U. after   14 cycles
            NFock= 14  Conv=0.76D-08     -V/T= 2.0031
 KE= 5.655557062739D+02 PE=-1.655755388199D+03 EE= 3.666840778383D+02
 Leave Link  502 at Wed Oct 14 11:16:31 2015, MaxMem=    33554432 cpu:        25.2
 (Enter /group/hpc-share/gaussian/2009D/g09/l601.exe)
 Copying SCF densities to generalized density rwf, IOpCl= 0 IROHF=0.

 **********************************************************************

            Population analysis using the SCF density.

 **********************************************************************

 Orbital symmetries:
       Occupied  (A') (A') (A') (A') (A') (A') (A") (A') (A') (A')
                 (A') (A') (A') (A") (A') (A') (A") (A') (A") (A')
       Virtual   (A") (A') (A') (A') (A") (A') (A') (A') (A") (A')
                 (A') (A") (A') (A') (A") (A') (A') (A") (A') (A")
                 (A') (A') (A") (A') (A') (A') (A') (A") (A') (A')
                 (A') (A") (A') (A") (A') (A") (A') (A') (A") (A')
                 (A') (A") (A') (A") (A') (A') (A") (A') (A") (A')
                 (A')
 The electronic state is 1-A'.
 Alpha  occ. eigenvalues --  -89.05702 -19.23406 -14.53042 -10.28005  -8.06041
 Alpha  occ. eigenvalues --   -6.00262  -5.99568  -5.99548  -1.06992  -0.88187
 Alpha  occ. eigenvalues --   -0.78931  -0.61298  -0.50022  -0.48936  -0.48865
 Alpha  occ. eigenvalues --   -0.43284  -0.42717  -0.32267  -0.28073  -0.26265
 Alpha virt. eigenvalues --   -0.11144  -0.04897   0.07730   0.10401   0.12211
 Alpha virt. eigenvalues --    0.13572   0.21860   0.34719   0.39874   0.42245
 Alpha virt. eigenvalues --    0.45480   0.55367   0.57460   0.63042   0.63902
 Alpha virt. eigenvalues --    0.66788   0.68057   0.68229   0.69504   0.73709
 Alpha virt. eigenvalues --    0.75023   0.78304   0.82284   0.83410   0.91855
 Alpha virt. eigenvalues --    0.93465   1.00379   1.00628   1.08706   1.11871
 Alpha virt. eigenvalues --    1.31512   1.69271   1.71622   1.95341   2.02773
 Alpha virt. eigenvalues --    2.08337   2.10519   2.14404   2.17790   2.27656
 Alpha virt. eigenvalues --    2.57433   2.65723   2.67138   2.94543   2.97601
 Alpha virt. eigenvalues --    3.52082   4.58112   4.60061   4.69067   4.85021
 Alpha virt. eigenvalues --    4.95665
          Condensed to atoms (all electrons):
               1          2          3          4          5          6
     1  O    8.251719   0.207573  -0.100514  -0.000609   0.000027   0.001952
     2  N    0.207573   6.654582   0.179356   0.005030   0.000800  -0.001490
     3  S   -0.100514   0.179356  15.635339   0.165613  -0.021156  -0.021977
     4  C   -0.000609   0.005030   0.165613   5.154069   0.383969   0.359630
     5  H    0.000027   0.000800  -0.021156   0.383969   0.433501  -0.012884
     6  H    0.001952  -0.001490  -0.021977   0.359630  -0.012884   0.473073
     7  H    0.001952  -0.001490  -0.021977   0.359630  -0.012884  -0.008230
               7
     1  O    0.001952
     2  N   -0.001490
     3  S   -0.021977
     4  C    0.359630
     5  H   -0.012884
     6  H   -0.008230
     7  H    0.473073
 Mulliken charges:
               1
     1  O   -0.362099
     2  N   -0.044361
     3  S    0.185315
     4  C   -0.427332
     5  H    0.228625
     6  H    0.209926
     7  H    0.209926
 Sum of Mulliken charges =   0.00000
 Mulliken charges with hydrogens summed into heavy atoms:
               1
     1  O   -0.362099
     2  N   -0.044361
     3  S    0.185315
     4  C    0.221145
 Electronic spatial extent (au):  <R**2>=            370.1915
 Charge=              0.0000 electrons
 Dipole moment (field-independent basis, Debye):
    X=              4.7105    Y=              2.5509    Z=              0.0000  Tot=              5.3569
 Quadrupole moment (field-independent basis, Debye-Ang):
   XX=            -27.7715   YY=            -35.0503   ZZ=            -29.2974
   XY=              0.0909   XZ=              0.0000   YZ=              0.0000
 Traceless Quadrupole moment (field-independent basis, Debye-Ang):
   XX=              2.9349   YY=             -4.3439   ZZ=              1.4090
   XY=              0.0909   XZ=              0.0000   YZ=              0.0000
 Octapole moment (field-independent basis, Debye-Ang**2):
  XXX=             11.5556  YYY=              5.3729  ZZZ=              0.0000  XYY=              8.7190
  XXY=              5.4440  XXZ=              0.0000  XZZ=              0.9603  YZZ=             -2.5773
  YYZ=              0.0000  XYZ=              0.0000
 Hexadecapole moment (field-independent basis, Debye-Ang**3):
 XXXX=           -246.4410 YYYY=           -186.8793 ZZZZ=            -34.5438 XXXY=            -47.5016
 XXXZ=              0.0000 YYYX=            -54.3228 YYYZ=              0.0000 ZZZX=              0.0000
 ZZZY=              0.0000 XXYY=            -69.2739 XXZZ=            -44.6075 YYZZ=            -35.5993
 XXYZ=              0.0000 YYXZ=              0.0000 ZZXY=            -17.9670
 N-N= 1.561950372443D+02 E-N=-1.655755388258D+03  KE= 5.655557062739D+02
 Symmetry A'   KE= 5.207637454629D+02
 Symmetry A"   KE= 4.479196081105D+01
 No NMR shielding tensors so no spin-rotation constants.
 Leave Link  601 at Wed Oct 14 11:16:32 2015, MaxMem=    33554432 cpu:         1.7
 (Enter /group/hpc-share/gaussian/2009D/g09/l701.exe)
 Compute integral first derivatives.
 ... and contract with generalized density number  0.
 D1PCM: PCM CHGder 1st derivatives, ID1Alg=3 FixD1E=F DoIter=F DoCFld=F I1PDM=0.
 GePol: Maximum number of non-zero 1st derivatives   =     278
 Leave Link  701 at Wed Oct 14 11:16:32 2015, MaxMem=    33554432 cpu:         3.5
 (Enter /group/hpc-share/gaussian/2009D/g09/l702.exe)
 L702 exits ... SP integral derivatives will be done elsewhere.
 Leave Link  702 at Wed Oct 14 11:16:32 2015, MaxMem=    33554432 cpu:         0.1
 (Enter /group/hpc-share/gaussian/2009D/g09/l703.exe)
 Compute integral first derivatives, UseDBF=F ICtDFT=           0.
 Integral derivatives from FoFJK, PRISM(SPDF).
 Calling FoFJK, ICntrl=      2127 FMM=F ISym2X=1 I1Cent= 0 IOpClX= 0 NMat=1 NMatS=1 NMatT=0.
 FoFJK:  IHMeth= 1 ICntrl=    2127 DoSepK=F KAlg= 0 I1Cent=   0 FoldK=F
 IRaf=         0 NMat=   1 IRICut=       1 DoRegI=T DoRafI=F ISym2E= 1.
 FoFCou: FMM=F IPFlag=           0 FMFlag=      100000 FMFlg1=         800
         NFxFlg=           0 DoJE=F BraDBF=F KetDBF=F FulRan=T
         wScrn=  0.000000 ICntrl=    2127 IOpCl=  0 I1Cent=           0 NGrid=           0
         NMat0=    1 NMatS0=      1 NMatT0=    0 NMatD0=    1 NMtDS0=    0 NMtDT0=    0
 Petite list used in FoFCou.
 Leave Link  703 at Wed Oct 14 11:16:33 2015, MaxMem=    33554432 cpu:         2.4
 (Enter /group/hpc-share/gaussian/2009D/g09/l716.exe)
 Dipole        = 1.85327102D+00 1.00361428D+00 0.00000000D+00
 ***** Axes restored to original set *****
 -------------------------------------------------------------------
 Center     Atomic                   Forces (Hartrees/Bohr)
 Number     Number              X              Y              Z
 -------------------------------------------------------------------
      1        8          -0.032168646    0.000000000    0.121864015
      2        7           0.044507369    0.000000000   -0.192472227
      3       16          -0.034752968    0.000000000    0.134732110
      4        6           0.012198403    0.000000000   -0.062076610
      5        1          -0.006026268    0.000000000    0.014330182
      6        1           0.008121055   -0.006838726   -0.008188735
      7        1           0.008121055    0.006838726   -0.008188735
 -------------------------------------------------------------------
 Cartesian Forces:  Max     0.192472227 RMS     0.061286276
 Leave Link  716 at Wed Oct 14 11:16:33 2015, MaxMem=    33554432 cpu:         0.1
 (Enter /group/hpc-share/gaussian/2009D/g09/l103.exe)

 GradGradGradGradGradGradGradGradGradGradGradGradGradGradGradGradGradGrad
 Berny optimization.
 FormGI is forming the generalized inverse of G from B-inverse, IUseBI=4.
 Internal  Forces:  Max     0.131885380 RMS     0.048741712
 Search for a local minimum.
 Step number   1 out of a maximum of   28
 All quantities printed in internal units (Hartrees-Bohrs-Radians)
 RMS Force = .48742D-01 SwitMx=.10000D-02 MixMth= 1
 Mixed Optimization -- RFO/linear search
 Second derivative matrix not updated -- first step.
 The second derivative matrix:
                          R1        R2        R3        R4        R5
           R1           0.45621
           R2           0.00000   0.46672
           R3           0.00000   0.00000   0.34713
           R4           0.00000   0.00000   0.00000   0.34928
           R5           0.00000   0.00000   0.00000   0.00000   0.34928
           R6           0.00000   0.00000   0.00000   0.00000   0.00000
           A1           0.00000   0.00000   0.00000   0.00000   0.00000
           A2           0.00000   0.00000   0.00000   0.00000   0.00000
           A3           0.00000   0.00000   0.00000   0.00000   0.00000
           A4           0.00000   0.00000   0.00000   0.00000   0.00000
           A5           0.00000   0.00000   0.00000   0.00000   0.00000
           A6           0.00000   0.00000   0.00000   0.00000   0.00000
           A7           0.00000   0.00000   0.00000   0.00000   0.00000
           A8           0.00000   0.00000   0.00000   0.00000   0.00000
           D1           0.00000   0.00000   0.00000   0.00000   0.00000
           D2           0.00000   0.00000   0.00000   0.00000   0.00000
           D3           0.00000   0.00000   0.00000   0.00000   0.00000
           D4           0.00000   0.00000   0.00000   0.00000   0.00000
                          R6        A1        A2        A3        A4
           R6           0.34928
           A1           0.00000   0.25000
           A2           0.00000   0.00000   0.25000
           A3           0.00000   0.00000   0.00000   0.16000
           A4           0.00000   0.00000   0.00000   0.00000   0.16000
           A5           0.00000   0.00000   0.00000   0.00000   0.00000
           A6           0.00000   0.00000   0.00000   0.00000   0.00000
           A7           0.00000   0.00000   0.00000   0.00000   0.00000
           A8           0.00000   0.00000   0.00000   0.00000   0.00000
           D1           0.00000   0.00000   0.00000   0.00000   0.00000
           D2           0.00000   0.00000   0.00000   0.00000   0.00000
           D3           0.00000   0.00000   0.00000   0.00000   0.00000
           D4           0.00000   0.00000   0.00000   0.00000   0.00000
                          A5        A6        A7        A8        D1
           A5           0.16000
           A6           0.00000   0.16000
           A7           0.00000   0.00000   0.16000
           A8           0.00000   0.00000   0.00000   0.16000
           D1           0.00000   0.00000   0.00000   0.00000   0.02288
           D2           0.00000   0.00000   0.00000   0.00000   0.00000
           D3           0.00000   0.00000   0.00000   0.00000   0.00000
           D4           0.00000   0.00000   0.00000   0.00000   0.00000
                          D2        D3        D4
           D2           0.01561
           D3           0.00000   0.01561
           D4           0.00000   0.00000   0.01561
 ITU=  0
     Eigenvalues ---    0.01561   0.02288   0.10446   0.10446   0.16000
     Eigenvalues ---    0.16000   0.16000   0.25000   0.25000   0.34713
     Eigenvalues ---    0.34928   0.34928   0.34928   0.45621   0.46672
 RFO step:  Lambda=-1.04839304D-01 EMin= 1.56082885D-02
 Linear search not attempted -- first point.
 Maximum step size (   0.300) exceeded in Quadratic search.
    -- Step size scaled by   0.579
 Iteration  1 RMS(Cart)=  0.07382924 RMS(Int)=  0.00738059
 Iteration  2 RMS(Cart)=  0.01999641 RMS(Int)=  0.00024670
 Iteration  3 RMS(Cart)=  0.00007686 RMS(Int)=  0.00023758
 Iteration  4 RMS(Cart)=  0.00000001 RMS(Int)=  0.00023758
 ITry= 1 IFail=0 DXMaxC= 2.56D-01 DCOld= 1.00D+10 DXMaxT= 3.00D-01 DXLimC= 3.00D+00 Rises=F
 ClnCor:  largest displacement from symmetrization is 1.89D-09 for atom     7.
 Variable       Old X    -DE/DX   Delta X   Delta X   Delta X     New X
                                 (Linear)    (Quad)   (Total)
    R1        2.64562  -0.12187   0.00000  -0.12577  -0.12577   2.51985
    R2        3.07080   0.01190   0.00000   0.01206   0.01206   3.08286
    R3        3.23143   0.04189   0.00000   0.05367   0.05367   3.28510
    R4        2.05791   0.00751   0.00000   0.00958   0.00958   2.06749
    R5        2.05791   0.01145   0.00000   0.01460   0.01460   2.07251
    R6        2.05791   0.01145   0.00000   0.01460   0.01460   2.07251
    A1        1.91063   0.08512   0.00000   0.13888   0.13888   2.04951
    A2        2.47357  -0.13189   0.00000  -0.21519  -0.21519   2.25838
    A3        1.91063  -0.02539   0.00000  -0.05723  -0.05706   1.85357
    A4        1.91063   0.01281   0.00000   0.02885   0.02866   1.93929
    A5        1.91063   0.01281   0.00000   0.02885   0.02866   1.93929
    A6        1.91063   0.00259   0.00000   0.00395   0.00413   1.91476
    A7        1.91063   0.00259   0.00000   0.00395   0.00413   1.91476
    A8        1.91063  -0.00541   0.00000  -0.00838  -0.00889   1.90174
    D1        0.00000   0.00000   0.00000   0.00000   0.00000   0.00000
    D2        3.14159   0.00000   0.00000   0.00000   0.00000   3.14159
    D3       -1.04720  -0.00453   0.00000  -0.01254  -0.01308  -1.06028
    D4        1.04720   0.00453   0.00000   0.01254   0.01308   1.06028
         Item               Value     Threshold  Converged?
 Maximum Force            0.131885     0.000450     NO 
 RMS     Force            0.048742     0.000300     NO 
 Maximum Displacement     0.255842     0.001800     NO 
 RMS     Displacement     0.087921     0.001200     NO 
 Predicted change in Energy=-4.786283D-02
 Lowest energy point so far.  Saving SCF results.
 GradGradGradGradGradGradGradGradGradGradGradGradGradGradGradGradGradGrad

 Leave Link  103 at Wed Oct 14 11:16:33 2015, MaxMem=    33554432 cpu:         0.0
 (Enter /group/hpc-share/gaussian/2009D/g09/l202.exe)
                          Input orientation:                          
 ---------------------------------------------------------------------
 Center     Atomic      Atomic             Coordinates (Angstroms)
 Number     Number       Type             X           Y           Z
 ---------------------------------------------------------------------
      1          8           0        0.064406    0.000000    0.001598
      2          7           0        0.073091    0.000000    1.335017
      3         16           0        1.525944    0.000000    2.077053
      4          6           0        3.119565    0.000000    1.382502
      5          1           0        3.819170    0.000000    2.223656
      6          1           0        3.281979   -0.892647    0.766380
      7          1           0        3.281979    0.892647    0.766380
 ---------------------------------------------------------------------
                    Distance matrix (angstroms):
                    1          2          3          4          5
     1  O    0.000000
     2  N    1.333448   0.000000
     3  S    2.538426   1.631380   0.000000
     4  C    3.352744   3.046844   1.738399   0.000000
     5  H    4.363003   3.850038   2.297908   1.094070   0.000000
     6  H    3.425564   3.378925   2.366082   1.096724   1.791381
     7  H    3.425564   3.378925   2.366082   1.096724   1.791381
                    6          7
     6  H    0.000000
     7  H    1.785294   0.000000
 Stoichiometry    CH3NOS
 Framework group  CS[SG(CHNOS),X(H2)]
 Deg. of freedom    10
 Full point group                 CS      NOp   2
 RotChk:  IX=0 Diff= 9.41D-02
 Largest Abelian subgroup         CS      NOp   2
 Largest concise Abelian subgroup CS      NOp   2
                         Standard orientation:                         
 ---------------------------------------------------------------------
 Center     Atomic      Atomic             Coordinates (Angstroms)
 Number     Number       Type             X           Y           Z
 ---------------------------------------------------------------------
      1          8           0       -0.962746   -1.619466    0.000000
      2          7           0       -1.251168   -0.317584    0.000000
      3         16           0        0.000000    0.729305    0.000000
      4          6           0        1.708261    0.407012    0.000000
      5          1           0        2.203020    1.382820    0.000000
      6          1           0        2.003779   -0.157483    0.892647
      7          1           0        2.003779   -0.157483   -0.892647
 ---------------------------------------------------------------------
 Rotational constants (GHZ):     15.0817646      4.2728927      3.4015609
 Leave Link  202 at Wed Oct 14 11:16:33 2015, MaxMem=    33554432 cpu:         0.2
 (Enter /group/hpc-share/gaussian/2009D/g09/l301.exe)
 Basis read from rwf:  (5D, 7F)
 No pseudopotential information found on rwf file.
 There are    55 symmetry adapted cartesian basis functions of A'  symmetry.
 There are    21 symmetry adapted cartesian basis functions of A"  symmetry.
 There are    50 symmetry adapted basis functions of A'  symmetry.
 There are    21 symmetry adapted basis functions of A"  symmetry.
    71 basis functions,   130 primitive gaussians,    76 cartesian basis functions
    20 alpha electrons       20 beta electrons
       nuclear repulsion energy       156.3480970770 Hartrees.
 IExCor= 1009 DFT=T Ex+Corr=PBE1PBE ExCW=0 ScaHFX=  0.250000
 ScaDFX=  0.750000  0.750000  1.000000  1.000000 ScalE2=  1.000000  1.000000
 IRadAn=      0 IRanWt=     -1 IRanGd=            0 ICorTp=0 IEmpDi=  4
 NAtoms=    7 NActive=    7 NUniq=    6 SFac= 1.36D+00 NAtFMM=   60 NAOKFM=F Big=F
 Integral buffers will be    131072 words long.
 Raffenetti 2 integral format.
 Two-electron integral symmetry is turned on.
 No density basis found on file   724.
 ------------------------------------------------------------------------------
 Polarizable Continuum Model (PCM)
 =================================
 Model                : PCM (using non-symmetric T matrix).
 Atomic radii         : UFF (Universal Force Field).
 Polarization charges : Total charges.
 Charge compensation  : None.
 Solution method      : On-the-fly selection.
 Cavity type          : Scaled VdW (van der Waals Surface) (Alpha=1.100).
 Cavity algorithm     : GePol (No added spheres)
                        Default sphere list used, NSphG=    7.
                        Lebedev-Laikov grids with approx.  5.0 points / Ang**2.
                        Smoothing algorithm: Karplus/York (Gamma=1.0000).
                        Polarization charges: spherical gaussians, with
                                              point-specific exponents (IZeta= 3).
                        Self-potential: point-specific (ISelfS= 7).
                        Self-field    : sphere-specific E.n sum rule (ISelfD= 2).
 1st derivatives      : Analytical E(r).r(x)/FMM algorithm (CHGder, D1EAlg=3).
                        Cavity 1st derivative terms included.
 Solvent              : DiethylEther, Eps=   4.240000 Eps(inf)=   1.829527
 ------------------------------------------------------------------------------
 Spheres list:
 ISph  on   Nord     Re0    Alpha      Xe            Ye            Ze
    1   O      1    1.7500  1.100     -0.962746     -1.619466      0.000000
    2   N      2    1.8300  1.100     -1.251168     -0.317584      0.000000
    3   S      3    2.0175  1.100      0.000000      0.729305      0.000000
    4   C      4    1.9255  1.100      1.708261      0.407012      0.000000
    5   H      5    1.4430  1.100      2.203020      1.382820      0.000000
    6   H      6    1.4430  1.100      2.003779     -0.157483      0.892647
    7   H      7    1.4430  1.100      2.003779     -0.157483     -0.892647
 ------------------------------------------------------------------------------
 GePol: Number of generator spheres                  =       7
 GePol: Total number of spheres                      =       7
 GePol: Number of exposed spheres                    =       7 (100.00%)
 GePol: Number of points                             =     907
 GePol: Average weight of points                     =       0.13
 GePol: Minimum weight of points                     =   0.29D-05
 GePol: Maximum weight of points                     =    0.20577
 GePol: Number of points with low weight             =      30
 GePol: Fraction of low-weight points (<1% of avg)   =       3.31%
 GePol: Cavity surface area                          =    121.599 Ang**2
 GePol: Cavity volume                                =    105.208 Ang**3
 Leave Link  301 at Wed Oct 14 11:16:33 2015, MaxMem=    33554432 cpu:         1.1
 (Enter /group/hpc-share/gaussian/2009D/g09/l302.exe)
 NPDir=0 NMtPBC=     1 NCelOv=     1 NCel=       1 NClECP=     1 NCelD=      1
         NCelK=      1 NCelE2=     1 NClLst=     1 CellRange=     0.0.
 One-electron integrals computed using PRISM.
 One-electron integral symmetry used in STVInt
 NBasis=    71 RedAO= T EigKep=  1.04D-02  NBF=    50    21
 NBsUse=    71 1.00D-06 EigRej= -1.00D+00 NBFU=    50    21
 Precomputing XC quadrature grid using
 IXCGrd= 4 IRadAn=           0 IRanWt=          -1 IRanGd=           0 AccXCQ= 0.00D+00.
 Generated NRdTot=       0 NPtTot=           0 NUsed=           0 NTot=          32
 NSgBfM=    76    76    76    76    76 MxSgAt=     7 MxSgA2=     7.
 Leave Link  302 at Wed Oct 14 11:16:33 2015, MaxMem=    33554432 cpu:         1.5
 (Enter /group/hpc-share/gaussian/2009D/g09/l303.exe)
 DipDrv:  MaxL=1.
 Leave Link  303 at Wed Oct 14 11:16:33 2015, MaxMem=    33554432 cpu:         0.2
 (Enter /group/hpc-share/gaussian/2009D/g09/l401.exe)
 Initial guess from the checkpoint file:  "cis-mesno.chk"
 B after Tr=     0.000000    0.000000    0.000000
         Rot=    0.999700    0.000000    0.000000    0.024503 Ang=   2.81 deg.
 Guess basis will be translated and rotated to current coordinates.
 JPrj=2 DoOrth=T DoCkMO=T.
 Initial guess orbital symmetries:
       Occupied  (A') (A') (A') (A') (A') (A') (A") (A') (A') (A')
                 (A') (A') (A') (A") (A') (A') (A") (A') (A") (A')
       Virtual   (A') (A') (A') (A') (A') (A') (A') (A') (A') (A')
                 (A') (A') (A') (A') (A') (A') (A') (A') (A') (A')
                 (A') (A') (A') (A') (A') (A') (A') (A') (A') (A')
                 (A') (A') (A') (A') (A") (A") (A") (A") (A") (A")
                 (A") (A") (A") (A") (A") (A") (A") (A") (A") (A")
                 (A")
 The electronic state of the initial guess is 1-A'.
 Generating alternative initial guess.
 ExpMin= 1.22D-01 ExpMax= 9.18D+03 ExpMxC= 1.38D+03 IAcc=1 IRadAn=         1 AccDes= 0.00D+00
 Harris functional with IExCor= 1009 and IRadAn=       1 diagonalized for initial guess.
 HarFok:  IExCor= 1009 AccDes= 0.00D+00 IRadAn=         1 IDoV= 1 UseB2=F ITyADJ=14
 ICtDFT=  3500011 ScaDFX=  1.000000  1.000000  1.000000  1.000000
 FoFCou: FMM=F IPFlag=           0 FMFlag=      100000 FMFlg1=           0
         NFxFlg=           0 DoJE=T BraDBF=F KetDBF=T FulRan=T
         wScrn=  0.000000 ICntrl=     500 IOpCl=  0 I1Cent=   200000004 NGrid=           0
         NMat0=    1 NMatS0=      1 NMatT0=    0 NMatD0=    1 NMtDS0=    0 NMtDT0=    0
 Petite list used in FoFCou.
 Harris En= -567.367450993168    
 Leave Link  401 at Wed Oct 14 11:16:34 2015, MaxMem=    33554432 cpu:         1.5
 (Enter /group/hpc-share/gaussian/2009D/g09/l502.exe)
 Closed shell SCF:
 Using DIIS extrapolation, IDIIS=  1040.
 Integral symmetry usage will be decided dynamically.
 Keep R1 ints in memory in symmetry-blocked form, NReq=7159874.
 IVT=       37168 IEndB=       37168 NGot=    33554432 MDV=    31824708
 LenX=    31824708 LenY=    31818491
 Requested convergence on RMS density matrix=1.00D-08 within 128 cycles.
 Requested convergence on MAX density matrix=1.00D-06.
 Requested convergence on             energy=1.00D-06.
 No special actions if energy rises.
 FoFCou: FMM=F IPFlag=           0 FMFlag=           0 FMFlg1=           0
         NFxFlg=           0 DoJE=F BraDBF=F KetDBF=F FulRan=T
         wScrn=  0.000000 ICntrl=     600 IOpCl=  0 I1Cent=           0 NGrid=           0
         NMat0=    1 NMatS0=   2556 NMatT0=    0 NMatD0=    1 NMtDS0=    0 NMtDT0=    0
 Petite list used in FoFCou.

 Cycle   1  Pass 1  IDiag  1:
 Inv3:  Mode=1 IEnd=     2467947.
 Iteration    1 A*A^-1 deviation from unit magnitude is 5.00D-15 for    348.
 Iteration    1 A*A^-1 deviation from orthogonality  is 2.87D-15 for    851    564.
 Iteration    1 A^-1*A deviation from unit magnitude is 5.77D-15 for    213.
 Iteration    1 A^-1*A deviation from orthogonality  is 1.40D-12 for    588    572.
 E= -567.359655738564    
 DIIS: error= 7.53D-03 at cycle   1 NSaved=   1.
 NSaved= 1 IEnMin= 1 EnMin= -567.359655738564     IErMin= 1 ErrMin= 7.53D-03
 ErrMax= 7.53D-03  0.00D+00 EMaxC= 1.00D-01 BMatC= 8.07D-03 BMatP= 8.07D-03
 IDIUse=3 WtCom= 9.25D-01 WtEn= 7.53D-02
 Coeff-Com:  0.100D+01
 Coeff-En:   0.100D+01
 Coeff:      0.100D+01
 Gap=     0.533 Goal=   None    Shift=    0.000
 GapD=    0.533 DampG=2.000 DampE=1.000 DampFc=2.0000 IDamp=-1.
 RMSDP=2.40D-03 MaxDP=3.03D-02              OVMax= 3.10D-02

 Cycle   2  Pass 1  IDiag  1:
 E= -567.370935196911     Delta-E=       -0.011279458347 Rises=F Damp=F
 DIIS: error= 1.38D-03 at cycle   2 NSaved=   2.
 NSaved= 2 IEnMin= 2 EnMin= -567.370935196911     IErMin= 2 ErrMin= 1.38D-03
 ErrMax= 1.38D-03  0.00D+00 EMaxC= 1.00D-01 BMatC= 2.60D-04 BMatP= 8.07D-03
 IDIUse=3 WtCom= 9.86D-01 WtEn= 1.38D-02
 Coeff-Com:  0.343D-04 0.100D+01
 Coeff-En:   0.000D+00 0.100D+01
 Coeff:      0.338D-04 0.100D+01
 Gap=     0.160 Goal=   None    Shift=    0.000
 RMSDP=4.85D-04 MaxDP=8.85D-03 DE=-1.13D-02 OVMax= 1.04D-02

 Cycle   3  Pass 1  IDiag  1:
 E= -567.370659658453     Delta-E=        0.000275538458 Rises=F Damp=F
 DIIS: error= 3.30D-03 at cycle   3 NSaved=   3.
 NSaved= 3 IEnMin= 2 EnMin= -567.370935196911     IErMin= 2 ErrMin= 1.38D-03
 ErrMax= 3.30D-03  0.00D+00 EMaxC= 1.00D-01 BMatC= 7.59D-04 BMatP= 2.60D-04
 IDIUse=3 WtCom= 1.48D-01 WtEn= 8.52D-01
 Coeff-Com: -0.324D-01 0.665D+00 0.367D+00
 Coeff-En:   0.000D+00 0.661D+00 0.339D+00
 Coeff:     -0.480D-02 0.662D+00 0.343D+00
 Gap=     0.164 Goal=   None    Shift=    0.000
 RMSDP=3.01D-04 MaxDP=7.45D-03 DE= 2.76D-04 OVMax= 9.88D-03

 Cycle   4  Pass 1  IDiag  1:
 E= -567.371212159208     Delta-E=       -0.000552500755 Rises=F Damp=F
 DIIS: error= 8.11D-04 at cycle   4 NSaved=   4.
 NSaved= 4 IEnMin= 4 EnMin= -567.371212159208     IErMin= 4 ErrMin= 8.11D-04
 ErrMax= 8.11D-04  0.00D+00 EMaxC= 1.00D-01 BMatC= 4.69D-05 BMatP= 2.60D-04
 IDIUse=3 WtCom= 9.92D-01 WtEn= 8.11D-03
 Coeff-Com: -0.185D-01 0.267D+00 0.225D+00 0.527D+00
 Coeff-En:   0.000D+00 0.000D+00 0.373D-01 0.963D+00
 Coeff:     -0.183D-01 0.264D+00 0.223D+00 0.530D+00
 Gap=     0.163 Goal=   None    Shift=    0.000
 RMSDP=1.20D-04 MaxDP=2.38D-03 DE=-5.53D-04 OVMax= 4.41D-03

 Cycle   5  Pass 1  IDiag  1:
 E= -567.371250805102     Delta-E=       -0.000038645893 Rises=F Damp=F
 DIIS: error= 1.96D-04 at cycle   5 NSaved=   5.
 NSaved= 5 IEnMin= 5 EnMin= -567.371250805102     IErMin= 5 ErrMin= 1.96D-04
 ErrMax= 1.96D-04  0.00D+00 EMaxC= 1.00D-01 BMatC= 5.56D-06 BMatP= 4.69D-05
 IDIUse=3 WtCom= 9.98D-01 WtEn= 1.96D-03
 Coeff-Com: -0.696D-02 0.556D-01 0.691D-01 0.297D+00 0.585D+00
 Coeff-En:   0.000D+00 0.000D+00 0.000D+00 0.946D-01 0.905D+00
 Coeff:     -0.695D-02 0.555D-01 0.690D-01 0.297D+00 0.585D+00
 Gap=     0.163 Goal=   None    Shift=    0.000
 RMSDP=4.72D-05 MaxDP=6.31D-04 DE=-3.86D-05 OVMax= 1.58D-03

 Cycle   6  Pass 1  IDiag  1:
 E= -567.371255109604     Delta-E=       -0.000004304503 Rises=F Damp=F
 DIIS: error= 9.43D-05 at cycle   6 NSaved=   6.
 NSaved= 6 IEnMin= 6 EnMin= -567.371255109604     IErMin= 6 ErrMin= 9.43D-05
 ErrMax= 9.43D-05  0.00D+00 EMaxC= 1.00D-01 BMatC= 1.28D-06 BMatP= 5.56D-06
 IDIUse=1 WtCom= 1.00D+00 WtEn= 0.00D+00
 Coeff-Com: -0.643D-03-0.903D-02 0.551D-02 0.108D+00 0.373D+00 0.524D+00
 Coeff:     -0.643D-03-0.903D-02 0.551D-02 0.108D+00 0.373D+00 0.524D+00
 Gap=     0.163 Goal=   None    Shift=    0.000
 RMSDP=2.18D-05 MaxDP=3.24D-04 DE=-4.30D-06 OVMax= 8.07D-04

 Cycle   7  Pass 1  IDiag  1:
 E= -567.371256336466     Delta-E=       -0.000001226862 Rises=F Damp=F
 DIIS: error= 3.86D-05 at cycle   7 NSaved=   7.
 NSaved= 7 IEnMin= 7 EnMin= -567.371256336466     IErMin= 7 ErrMin= 3.86D-05
 ErrMax= 3.86D-05  0.00D+00 EMaxC= 1.00D-01 BMatC= 1.48D-07 BMatP= 1.28D-06
 IDIUse=1 WtCom= 1.00D+00 WtEn= 0.00D+00
 Coeff-Com:  0.208D-03-0.954D-02-0.526D-02 0.286D-01 0.127D+00 0.312D+00
 Coeff-Com:  0.547D+00
 Coeff:      0.208D-03-0.954D-02-0.526D-02 0.286D-01 0.127D+00 0.312D+00
 Coeff:      0.547D+00
 Gap=     0.163 Goal=   None    Shift=    0.000
 RMSDP=5.68D-06 MaxDP=8.56D-05 DE=-1.23D-06 OVMax= 1.27D-04

 Cycle   8  Pass 1  IDiag  1:
 E= -567.371256493610     Delta-E=       -0.000000157144 Rises=F Damp=F
 DIIS: error= 5.53D-06 at cycle   8 NSaved=   8.
 NSaved= 8 IEnMin= 8 EnMin= -567.371256493610     IErMin= 8 ErrMin= 5.53D-06
 ErrMax= 5.53D-06  0.00D+00 EMaxC= 1.00D-01 BMatC= 3.48D-09 BMatP= 1.48D-07
 IDIUse=1 WtCom= 1.00D+00 WtEn= 0.00D+00
 Coeff-Com:  0.139D-03-0.281D-02-0.287D-02 0.272D-02 0.112D-01 0.730D-01
 Coeff-Com:  0.144D+00 0.775D+00
 Coeff:      0.139D-03-0.281D-02-0.287D-02 0.272D-02 0.112D-01 0.730D-01
 Coeff:      0.144D+00 0.775D+00
 Gap=     0.163 Goal=   None    Shift=    0.000
 RMSDP=8.95D-07 MaxDP=1.45D-05 DE=-1.57D-07 OVMax= 1.76D-05

 Cycle   9  Pass 1  IDiag  1:
 E= -567.371256496718     Delta-E=       -0.000000003108 Rises=F Damp=F
 DIIS: error= 1.78D-06 at cycle   9 NSaved=   9.
 NSaved= 9 IEnMin= 9 EnMin= -567.371256496718     IErMin= 9 ErrMin= 1.78D-06
 ErrMax= 1.78D-06  0.00D+00 EMaxC= 1.00D-01 BMatC= 2.78D-10 BMatP= 3.48D-09
 IDIUse=1 WtCom= 1.00D+00 WtEn= 0.00D+00
 Coeff-Com:  0.102D-04 0.118D-03-0.268D-03-0.429D-03-0.677D-02-0.600D-02
 Coeff-Com: -0.220D-01 0.733D-01 0.962D+00
 Coeff:      0.102D-04 0.118D-03-0.268D-03-0.429D-03-0.677D-02-0.600D-02
 Coeff:     -0.220D-01 0.733D-01 0.962D+00
 Gap=     0.163 Goal=   None    Shift=    0.000
 RMSDP=3.84D-07 MaxDP=4.62D-06 DE=-3.11D-09 OVMax= 1.06D-05

 Cycle  10  Pass 1  IDiag  1:
 E= -567.371256497026     Delta-E=       -0.000000000308 Rises=F Damp=F
 DIIS: error= 2.22D-07 at cycle  10 NSaved=  10.
 NSaved=10 IEnMin=10 EnMin= -567.371256497026     IErMin=10 ErrMin= 2.22D-07
 ErrMax= 2.22D-07  0.00D+00 EMaxC= 1.00D-01 BMatC= 6.17D-12 BMatP= 2.78D-10
 IDIUse=1 WtCom= 1.00D+00 WtEn= 0.00D+00
 Coeff-Com: -0.210D-05 0.144D-03 0.364D-04-0.208D-03-0.237D-02-0.476D-02
 Coeff-Com: -0.114D-01-0.224D-01 0.240D+00 0.801D+00
 Coeff:     -0.210D-05 0.144D-03 0.364D-04-0.208D-03-0.237D-02-0.476D-02
 Coeff:     -0.114D-01-0.224D-01 0.240D+00 0.801D+00
 Gap=     0.163 Goal=   None    Shift=    0.000
 RMSDP=6.86D-08 MaxDP=9.51D-07 DE=-3.08D-10 OVMax= 1.75D-06

 Cycle  11  Pass 1  IDiag  1:
 E= -567.371256497040     Delta-E=       -0.000000000014 Rises=F Damp=F
 DIIS: error= 4.85D-08 at cycle  11 NSaved=  11.
 NSaved=11 IEnMin=11 EnMin= -567.371256497040     IErMin=11 ErrMin= 4.85D-08
 ErrMax= 4.85D-08  0.00D+00 EMaxC= 1.00D-01 BMatC= 1.76D-13 BMatP= 6.17D-12
 IDIUse=1 WtCom= 1.00D+00 WtEn= 0.00D+00
 Coeff-Com: -0.804D-06 0.433D-05 0.129D-04 0.244D-04 0.235D-03 0.651D-04
 Coeff-Com:  0.798D-03-0.824D-02-0.353D-01 0.612D-01 0.981D+00
 Coeff:     -0.804D-06 0.433D-05 0.129D-04 0.244D-04 0.235D-03 0.651D-04
 Coeff:      0.798D-03-0.824D-02-0.353D-01 0.612D-01 0.981D+00
 Gap=     0.163 Goal=   None    Shift=    0.000
 RMSDP=2.23D-08 MaxDP=3.15D-07 DE=-1.44D-11 OVMax= 5.75D-07

 Cycle  12  Pass 1  IDiag  1:
 E= -567.371256497037     Delta-E=        0.000000000003 Rises=F Damp=F
 DIIS: error= 1.42D-08 at cycle  12 NSaved=  12.
 NSaved=12 IEnMin=11 EnMin= -567.371256497040     IErMin=12 ErrMin= 1.42D-08
 ErrMax= 1.42D-08  0.00D+00 EMaxC= 1.00D-01 BMatC= 1.90D-14 BMatP= 1.76D-13
 IDIUse=1 WtCom= 1.00D+00 WtEn= 0.00D+00
 Coeff-Com:  0.123D-08-0.368D-05-0.162D-05 0.116D-04 0.837D-04 0.162D-03
 Coeff-Com:  0.373D-03-0.297D-03-0.107D-01-0.285D-01 0.114D+00 0.924D+00
 Coeff:      0.123D-08-0.368D-05-0.162D-05 0.116D-04 0.837D-04 0.162D-03
 Coeff:      0.373D-03-0.297D-03-0.107D-01-0.285D-01 0.114D+00 0.924D+00
 Gap=     0.163 Goal=   None    Shift=    0.000
 RMSDP=3.79D-09 MaxDP=5.66D-08 DE= 2.73D-12 OVMax= 1.14D-07

 Error on total polarization charges =  0.00365
 SCF Done:  E(RPBE1PBE) =  -567.371256497     A.U. after   12 cycles
            NFock= 12  Conv=0.38D-08     -V/T= 2.0033
 KE= 5.655157957146D+02 PE=-1.656024369530D+03 EE= 3.667892202413D+02
 Leave Link  502 at Wed Oct 14 11:16:37 2015, MaxMem=    33554432 cpu:        23.3
 (Enter /group/hpc-share/gaussian/2009D/g09/l701.exe)
 Compute integral first derivatives.
 ... and contract with generalized density number  0.
[...]
 (Enter /group/hpc-share/gaussian/2009D/g09/l703.exe)
 Compute integral first derivatives, UseDBF=F ICtDFT=           0.
 Integral derivatives from FoFJK, PRISM(SPDF).
 Calling FoFJK, ICntrl=      2127 FMM=F ISym2X=1 I1Cent= 0 IOpClX= 0 NMat=1 NMatS=1 NMatT=0.
 FoFJK:  IHMeth= 1 ICntrl=    2127 DoSepK=F KAlg= 0 I1Cent=   0 FoldK=F
 IRaf=         0 NMat=   1 IRICut=       1 DoRegI=T DoRafI=F ISym2E= 1.
 FoFCou: FMM=F IPFlag=           0 FMFlag=      100000 FMFlg1=         800
         NFxFlg=           0 DoJE=F BraDBF=F KetDBF=F FulRan=T
         wScrn=  0.000000 ICntrl=    2127 IOpCl=  0 I1Cent=           0 NGrid=           0
         NMat0=    1 NMatS0=      1 NMatT0=    0 NMatD0=    1 NMtDS0=    0 NMtDT0=    0
 Petite list used in FoFCou.
 Leave Link  703 at Wed Oct 14 11:17:18 2015, MaxMem=    33554432 cpu:         2.5
 (Enter /group/hpc-share/gaussian/2009D/g09/l716.exe)
 Dipole        = 1.07434169D+00 2.99805309D-01 4.44089210D-16
 ***** Axes restored to original set *****
 -------------------------------------------------------------------
 Center     Atomic                   Forces (Hartrees/Bohr)
 Number     Number              X              Y              Z
 -------------------------------------------------------------------
      1        8           0.000021812    0.000000000    0.000012105
      2        7          -0.000005851    0.000000000    0.000037619
      3       16           0.000009986    0.000000000   -0.000044902
      4        6          -0.000072082    0.000000000   -0.000020164
      5        1           0.000015169    0.000000000    0.000005644
      6        1           0.000015483   -0.000006463    0.000004849
      7        1           0.000015483    0.000006463    0.000004849
 -------------------------------------------------------------------
 Cartesian Forces:  Max     0.000072082 RMS     0.000022532
 Leave Link  716 at Wed Oct 14 11:17:19 2015, MaxMem=    33554432 cpu:         0.2
 (Enter /group/hpc-share/gaussian/2009D/g09/l103.exe)

 GradGradGradGradGradGradGradGradGradGradGradGradGradGradGradGradGradGrad
 Berny optimization.
 Using GEDIIS/GDIIS optimizer.
 FormGI is forming the generalized inverse of G from B-inverse, IUseBI=4.
 Internal  Forces:  Max     0.000057943 RMS     0.000020563
 Search for a local minimum.
 Step number  10 out of a maximum of   28
 All quantities printed in internal units (Hartrees-Bohrs-Radians)
 RMS Force = .20563D-04 SwitMx=.10000D-02 MixMth= 2
 Mixed Optimization -- En-DIIS/RFO-DIIS
 Swapping is turned off.
 Update second derivatives using D2CorX and points    3    4    5    6    7
                                                      8    9   10
 DE= -5.00D-07 DEPred=-4.97D-07 R= 1.00D+00
 Trust test= 1.00D+00 RLast= 2.61D-03 DXMaxT set to 8.05D-01
 The second derivative matrix:
                          R1        R2        R3        R4        R5
           R1           1.03923
           R2           0.17482   0.15076
           R3           0.01114   0.04103   0.33987
           R4          -0.01138  -0.00240   0.00532   0.34568
           R5          -0.00172  -0.00089   0.00468  -0.00108   0.35018
           R6          -0.00172  -0.00089   0.00468  -0.00108   0.00090
           A1           0.04631   0.07288   0.01016   0.00306   0.01163
           A2           0.01946   0.05894   0.02603   0.00197  -0.00350
           A3           0.02667  -0.00246  -0.01226   0.00617   0.00011
           A4          -0.01336  -0.00856   0.01456  -0.00627  -0.00082
           A5          -0.01336  -0.00856   0.01456  -0.00627  -0.00082
           A6           0.00968   0.01220  -0.00756   0.00576   0.00329
           A7           0.00968   0.01220  -0.00756   0.00576   0.00329
           A8          -0.01813  -0.00429  -0.00181  -0.00479  -0.00480
           D1           0.00000   0.00000   0.00000   0.00000   0.00000
           D2           0.00000   0.00000   0.00000   0.00000   0.00000
           D3          -0.00751  -0.00543  -0.00036  -0.00356  -0.00385
           D4           0.00751   0.00543   0.00036   0.00356   0.00385
                          R6        A1        A2        A3        A4
           R6           0.35018
           A1           0.01163   0.38538
           A2          -0.00350  -0.06019   0.29112
           A3           0.00011  -0.02763   0.02796   0.15508
           A4          -0.00082   0.01529  -0.01432   0.00918   0.14941
           A5          -0.00082   0.01529  -0.01432   0.00918  -0.01059
           A6           0.00329   0.01323  -0.00053  -0.01195   0.01137
           A7           0.00329   0.01323  -0.00053  -0.01195   0.01137
           A8          -0.00480  -0.02893   0.00269   0.00987  -0.01005
           D1           0.00000   0.00000   0.00000   0.00000   0.00000
           D2           0.00000   0.00000   0.00000   0.00000   0.00000
           D3          -0.00385  -0.02411   0.00658   0.00830  -0.00831
           D4           0.00385   0.02411  -0.00658  -0.00830   0.00831
                          A5        A6        A7        A8        D1
           A5           0.14941
           A6           0.01137   0.15383
           A7           0.01137  -0.00617   0.15383
           A8          -0.01005   0.00115   0.00115   0.16787
           D1           0.00000   0.00000   0.00000   0.00000   0.02288
           D2           0.00000   0.00000   0.00000   0.00000   0.00000
           D3          -0.00831   0.00105   0.00105   0.00623   0.00000
           D4           0.00831  -0.00105  -0.00105  -0.00623   0.00000
                          D2        D3        D4
           D2           0.01561
           D3           0.00000   0.02012
           D4           0.00000  -0.00451   0.02012
 ITU=  0  1  1  1  1  1  1  0  1  0
     Eigenvalues ---    0.01561   0.02288   0.07386   0.08650   0.10624
     Eigenvalues ---    0.14794   0.16000   0.16334   0.27293   0.34239
     Eigenvalues ---    0.34856   0.34928   0.36610   0.43344   1.07968
 En-DIIS/RFO-DIIS IScMMF=        0 using points:    10    9    8
 RFO step:  Lambda=-1.64439350D-08.
 NNeg= 0 NP= 3 Switch=  2.50D-03 Rises=F DC=  9.36D-06 SmlDif=  1.00D-05
 RMS Error=  0.4756171667D-04 NUsed= 3 EDIIS=F
 DidBck=F Rises=F RFO-DIIS coefs:    1.11961   -0.13228    0.01267
 Iteration  1 RMS(Cart)=  0.00018200 RMS(Int)=  0.00000004
 Iteration  2 RMS(Cart)=  0.00000002 RMS(Int)=  0.00000002
 ITry= 1 IFail=0 DXMaxC= 3.50D-04 DCOld= 1.00D+10 DXMaxT= 8.05D-01 DXLimC= 3.00D+00 Rises=F
 ClnCor:  largest displacement from symmetrization is 3.50D-13 for atom     2.
 Variable       Old X    -DE/DX   Delta X   Delta X   Delta X     New X
                                 (Linear)    (Quad)   (Total)
    R1        2.24268   0.00000   0.00006   0.00001   0.00006   2.24275
    R2        3.32214  -0.00004  -0.00012  -0.00015  -0.00027   3.32187
    R3        3.37253  -0.00002  -0.00002  -0.00006  -0.00007   3.37246
    R4        2.08191   0.00002   0.00003   0.00003   0.00006   2.08197
    R5        2.08362   0.00000   0.00000   0.00001   0.00001   2.08363
    R6        2.08362   0.00000   0.00000   0.00001   0.00001   2.08363
    A1        2.03884  -0.00006   0.00007  -0.00021  -0.00014   2.03870
    A2        1.77544   0.00000   0.00009  -0.00002   0.00007   1.77552
    A3        1.87131  -0.00001  -0.00010  -0.00010  -0.00020   1.87111
    A4        1.92731   0.00002   0.00008   0.00011   0.00019   1.92749
    A5        1.92731   0.00002   0.00008   0.00011   0.00019   1.92749
    A6        1.91412  -0.00001  -0.00005  -0.00010  -0.00015   1.91398
    A7        1.91412  -0.00001  -0.00005  -0.00010  -0.00015   1.91398
    A8        1.90936   0.00001   0.00004   0.00008   0.00012   1.90947
    D1        0.00000   0.00000   0.00000   0.00000   0.00000   0.00000
    D2        3.14159   0.00000   0.00000   0.00000   0.00000   3.14159
    D3       -1.05701  -0.00001  -0.00007  -0.00012  -0.00020  -1.05720
    D4        1.05701   0.00001   0.00007   0.00012   0.00020   1.05720
         Item               Value     Threshold  Converged?
 Maximum Force            0.000058     0.000450     YES
 RMS     Force            0.000021     0.000300     YES
 Maximum Displacement     0.000350     0.001800     YES
 RMS     Displacement     0.000182     0.001200     YES
 Predicted change in Energy=-2.034337D-08
 Optimization completed.
    -- Stationary point found.
                           ----------------------------
                           !   Optimized Parameters   !
                           ! (Angstroms and Degrees)  !
 --------------------------                            --------------------------
 ! Name  Definition              Value          Derivative Info.                !
 --------------------------------------------------------------------------------
 ! R1    R(1,2)                  1.1868         -DE/DX =    0.0                 !
 ! R2    R(2,3)                  1.758          -DE/DX =    0.0                 !
 ! R3    R(3,4)                  1.7847         -DE/DX =    0.0                 !
 ! R4    R(4,5)                  1.1017         -DE/DX =    0.0                 !
 ! R5    R(4,6)                  1.1026         -DE/DX =    0.0                 !
 ! R6    R(4,7)                  1.1026         -DE/DX =    0.0                 !
 ! A1    A(1,2,3)              116.8167         -DE/DX =   -0.0001              !
 ! A2    A(2,3,4)              101.7253         -DE/DX =    0.0                 !
 ! A3    A(3,4,5)              107.2184         -DE/DX =    0.0                 !
 ! A4    A(3,4,6)              110.4265         -DE/DX =    0.0                 !
 ! A5    A(3,4,7)              110.4265         -DE/DX =    0.0                 !
 ! A6    A(5,4,6)              109.6713         -DE/DX =    0.0                 !
 ! A7    A(5,4,7)              109.6713         -DE/DX =    0.0                 !
 ! A8    A(6,4,7)              109.3981         -DE/DX =    0.0                 !
 ! D1    D(1,2,3,4)              0.0            -DE/DX =    0.0                 !
 ! D2    D(2,3,4,5)            180.0            -DE/DX =    0.0                 !
 ! D3    D(2,3,4,6)            -60.5621         -DE/DX =    0.0                 !
 ! D4    D(2,3,4,7)             60.5621         -DE/DX =    0.0                 !
 --------------------------------------------------------------------------------
 Lowest energy point so far.  Saving SCF results.
 GradGradGradGradGradGradGradGradGradGradGradGradGradGradGradGradGradGrad

 Largest change from initial coordinates is atom    5       0.826 Angstoms.
 Leave Link  103 at Wed Oct 14 11:17:19 2015, MaxMem=    33554432 cpu:         0.0
 (Enter /group/hpc-share/gaussian/2009D/g09/l202.exe)
                          Input orientation:                          
 ---------------------------------------------------------------------
 Center     Atomic      Atomic             Coordinates (Angstroms)
 Number     Number       Type             X           Y           Z
 ---------------------------------------------------------------------
      1          8           0        0.580989    0.000000    0.046293
      2          7           0        0.237896    0.000000    1.182394
      3         16           0        1.510556    0.000000    2.395202
      4          6           0        2.978621    0.000000    1.380401
      5          1           0        3.845262    0.000000    2.060605
      6          1           0        3.006405   -0.899866    0.743844
      7          1           0        3.006405    0.899866    0.743844
 ---------------------------------------------------------------------
                    Distance matrix (angstroms):
                    1          2          3          4          5
     1  O    0.000000
     2  N    1.186777   0.000000
     3  S    2.526157   1.758001   0.000000
     4  C    2.743808   2.747868   1.784666   0.000000
     5  H    3.835743   3.712727   2.358560   1.101700   0.000000
     6  H    2.679362   2.943930   2.402978   1.102604   1.802026
     7  H    2.679362   2.943930   2.402978   1.102604   1.802026
                    6          7
     6  H    0.000000
     7  H    1.799731   0.000000
 Stoichiometry    CH3NOS
 Framework group  CS[SG(CHNOS),X(H2)]
 Deg. of freedom    10
 Full point group                 CS      NOp   2
 RotChk:  IX=0 Diff= 5.68D-16
 Largest Abelian subgroup         CS      NOp   2
 Largest concise Abelian subgroup CS      NOp   2
                         Standard orientation:                         
 ---------------------------------------------------------------------
 Center     Atomic      Atomic             Coordinates (Angstroms)
 Number     Number       Type             X           Y           Z
 ---------------------------------------------------------------------
      1          8           0       -0.787867   -1.473328    0.000000
      2          7           0       -1.198086   -0.359704    0.000000
      3         16           0        0.000000    0.926825    0.000000
      4          6           0        1.525957    0.001358    0.000000
      5          1           0        2.350501    0.732023    0.000000
      6          1           0        1.591645   -0.632409    0.899866
      7          1           0        1.591645   -0.632409   -0.899866
 ---------------------------------------------------------------------
 Rotational constants (GHZ):     11.4813376      5.4435446      3.7829720
 Leave Link  202 at Wed Oct 14 11:17:19 2015, MaxMem=    33554432 cpu:         0.2
 (Enter /group/hpc-share/gaussian/2009D/g09/l601.exe)
 Copying SCF densities to generalized density rwf, IOpCl= 0 IROHF=0.

 **********************************************************************

            Population analysis using the SCF density.

 **********************************************************************

 Orbital symmetries:
       Occupied  (A') (A') (A') (A') (A') (A') (A') (A") (A') (A')
                 (A') (A') (A') (A") (A') (A") (A') (A') (A") (A')
       Virtual   (A") (A') (A') (A') (A') (A") (A') (A') (A") (A')
                 (A') (A") (A') (A') (A") (A') (A') (A') (A") (A')
                 (A") (A') (A") (A') (A') (A') (A') (A") (A') (A')
                 (A') (A") (A') (A") (A') (A") (A') (A") (A') (A')
                 (A") (A') (A') (A") (A') (A') (A") (A") (A') (A')
                 (A')
 The electronic state is 1-A'.
 Alpha  occ. eigenvalues --  -89.03666 -19.28017 -14.52613 -10.26466  -8.03934
 Alpha  occ. eigenvalues --   -5.98146  -5.97650  -5.97268  -1.21063  -0.85055
 Alpha  occ. eigenvalues --   -0.73615  -0.60922  -0.52778  -0.49974  -0.49165
 Alpha  occ. eigenvalues --   -0.44872  -0.43500  -0.37333  -0.28310  -0.25213
 Alpha virt. eigenvalues --   -0.07970   0.01290   0.06542   0.11108   0.12754
 Alpha virt. eigenvalues --    0.13134   0.29529   0.38222   0.40281   0.42922
 Alpha virt. eigenvalues --    0.47053   0.55260   0.60796   0.61951   0.64782
 Alpha virt. eigenvalues --    0.66780   0.68324   0.69463   0.70090   0.71178
 Alpha virt. eigenvalues --    0.75352   0.76236   0.83069   0.83187   0.90805
 Alpha virt. eigenvalues --    0.97231   0.98661   1.00148   1.09265   1.16293
 Alpha virt. eigenvalues --    1.38794   1.69926   1.72068   1.90120   1.97806
 Alpha virt. eigenvalues --    2.06930   2.10502   2.10999   2.14065   2.34247
 Alpha virt. eigenvalues --    2.64333   2.64484   2.69307   3.20821   3.24652
 Alpha virt. eigenvalues --    3.64956   4.63294   4.64683   4.70580   4.78353
 Alpha virt. eigenvalues --    4.93907
          Condensed to atoms (all electrons):
               1          2          3          4          5          6
     1  O    7.966996   0.310599  -0.121811   0.018329   0.000714   0.008861
     2  N    0.310599   6.647355   0.110105  -0.021045   0.001687  -0.004274
     3  S   -0.121811   0.110105  15.747953   0.232054  -0.021835  -0.031101
     4  C    0.018329  -0.021045   0.232054   5.113132   0.377084   0.375822
     5  H    0.000714   0.001687  -0.021835   0.377084   0.469131  -0.012865
     6  H    0.008861  -0.004274  -0.031101   0.375822  -0.012865   0.487621
     7  H    0.008861  -0.004274  -0.031101   0.375822  -0.012865  -0.018670
               7
     1  O    0.008861
     2  N   -0.004274
     3  S   -0.031101
     4  C    0.375822
     5  H   -0.012865
     6  H   -0.018670
     7  H    0.487621
 Mulliken charges:
               1
     1  O   -0.192550
     2  N   -0.040153
     3  S    0.115737
     4  C   -0.471199
     5  H    0.198951
     6  H    0.194606
     7  H    0.194606
 Sum of Mulliken charges =   0.00000
 Mulliken charges with hydrogens summed into heavy atoms:
               1
     1  O   -0.192550
     2  N   -0.040153
     3  S    0.115737
     4  C    0.116965
 Electronic spatial extent (au):  <R**2>=            334.6060
 Charge=              0.0000 electrons
 Dipole moment (field-independent basis, Debye):
    X=              2.7307    Y=              0.7620    Z=              0.0000  Tot=              2.8350
 Quadrupole moment (field-independent basis, Debye-Ang):
   XX=            -29.2013   YY=            -32.9737   ZZ=            -29.8163
   XY=             -0.3898   XZ=              0.0000   YZ=              0.0000
 Traceless Quadrupole moment (field-independent basis, Debye-Ang):
   XX=              1.4625   YY=             -2.3099   ZZ=              0.8474
   XY=             -0.3898   XZ=              0.0000   YZ=              0.0000
 Octapole moment (field-independent basis, Debye-Ang**2):
  XXX=              6.0219  YYY=             -1.4321  ZZZ=              0.0000  XYY=              2.1060
  XXY=              1.4489  XXZ=              0.0000  XZZ=             -0.8390  YZZ=             -4.1426
  YYZ=              0.0000  XYZ=              0.0000
 Hexadecapole moment (field-independent basis, Debye-Ang**3):
 XXXX=           -211.6720 YYYY=           -181.6353 ZZZZ=            -36.3495 XXXY=            -20.4020
 XXXZ=              0.0000 YYYX=            -26.0478 YYYZ=              0.0000 ZZZX=              0.0000
 ZZZY=              0.0000 XXYY=            -61.7728 XXZZ=            -40.1409 YYZZ=            -34.9326
 XXYZ=              0.0000 YYXZ=              0.0000 ZZXY=             -8.6062
 N-N= 1.592447927296D+02 E-N=-1.661915820233D+03  KE= 5.656337493995D+02
 Symmetry A'   KE= 5.209221743112D+02
 Symmetry A"   KE= 4.471157508826D+01
 No NMR shielding tensors so no spin-rotation constants.
 Leave Link  601 at Wed Oct 14 11:17:19 2015, MaxMem=    33554432 cpu:         1.4
 (Enter /group/hpc-share/gaussian/2009D/g09/l9999.exe)
 B after Tr=    -0.486256    0.000000    0.038970
         Rot=    0.998551    0.000000   -0.053810    0.000000 Ang=  -6.17 deg.
 Final structure in terms of initial Z-matrix:
 O
 N,1,no2
 S,2,sn3,1,sno3
 C,3,cs4,1,cso4,2,dih4,0
 H,4,hc5,3,hcs5,1,dih5,0
 H,4,hc6,3,hcs6,5,dih6,0
 H,4,hc7,3,hcs7,5,dih7,0
      Variables:
 no2=1.18677675
 sn3=1.75800053
 sno3=116.81665305
 cs4=1.78466644
 cso4=76.93670533
 dih4=180.
 hc5=1.10170011
 hcs5=107.21837155
 dih5=180.
 hc6=1.10260363
 hcs6=110.42654226
 dih6=119.43787287
 hc7=1.10260363
 hcs7=110.42654226
 dih7=-119.43787287
 1\1\GINC-HPC-CN14\FOpt\RPBE1PBE\Gen\C1H3N1O1S1\6498IVANOVM\14-Oct-2015
 \0\\#P PBE1PBE/gen scrf(pcm,solvent=diethylether) scf(tight) opt\\cis-
 mesno\\0,1\O,0.7305353398,0.,-0.1186108828\N,0.3874423385,0.,1.0174904
 565\S,1.6601024667,0.,2.2302979703\C,3.1281671569,0.,1.2154973234\H,3.
 99480793,0.,1.8957009007\H,3.1559513988,-0.8998656752,0.5789405168\H,3
 .1559513988,0.8998656752,0.5789405168\\Version=EM64L-G09RevD.01\State=
 1-A'\HF=-567.4130025\RMSD=3.598e-09\RMSF=2.253e-05\Dipole=1.0903055,0.
 ,0.2352175\Quadrupole=1.0428451,0.6300542,-1.6728993,0.,-0.4546561,0.\
 PG=CS [SG(C1H1N1O1S1),X(H2)]\\@


 HO!  SUCH BUGS AND GOBLINS IN MY LIFE!

                            -- HAMLET, ACT 5, SCENE 2
 Job cpu time:       0 days  0 hours  5 minutes 50.8 seconds.
 File lengths (MBytes):  RWF=     20 Int=      0 D2E=      0 Chk=      2 Scr=      1
 Normal termination of Gaussian 09 at Wed Oct 14 11:17:19 2015.
