 Entering Gaussian System, Link 0=g09
 Input=ClF.com
 Output=ClF.log
 AtFile(1): ClF.zmat
            cl
            f   1 fcl2
            
            fcl2        1.628000
            
 Initial command:
 /group/hpc-share/gaussian/2009D/g09/l1.exe "/scratch/gaussian/g_ClF.com-810018.hn1.marqnet.mu.edu/Gau-10739.inp" -scrdir="/scratch/gaussian/g_ClF.com-810018.hn1.marqnet.mu.edu/"
 Entering Link 1 = /group/hpc-share/gaussian/2009D/g09/l1.exe PID=     10740.
  
 Copyright (c) 1988,1990,1992,1993,1995,1998,2003,2009,2013,
            Gaussian, Inc.  All Rights Reserved.
  
 This is part of the Gaussian(R) 09 program.  It is based on
 the Gaussian(R) 03 system (copyright 2003, Gaussian, Inc.),
 the Gaussian(R) 98 system (copyright 1998, Gaussian, Inc.),
 the Gaussian(R) 94 system (copyright 1995, Gaussian, Inc.),
 the Gaussian 92(TM) system (copyright 1992, Gaussian, Inc.),
 the Gaussian 90(TM) system (copyright 1990, Gaussian, Inc.),
 the Gaussian 88(TM) system (copyright 1988, Gaussian, Inc.),
 the Gaussian 86(TM) system (copyright 1986, Carnegie Mellon
 University), and the Gaussian 82(TM) system (copyright 1983,
 Carnegie Mellon University). Gaussian is a federally registered
 trademark of Gaussian, Inc.
  
 This software contains proprietary and confidential information,
 including trade secrets, belonging to Gaussian, Inc.
  
 This software is provided under written license and may be
 used, copied, transmitted, or stored only in accord with that
 written license.
  
 The following legend is applicable only to US Government
 contracts under FAR:
  
                    RESTRICTED RIGHTS LEGEND
  
 Use, reproduction and disclosure by the US Government is
 subject to restrictions as set forth in subparagraphs (a)
 and (c) of the Commercial Computer Software - Restricted
 Rights clause in FAR 52.227-19.
  
 Gaussian, Inc.
 340 Quinnipiac St., Bldg. 40, Wallingford CT 06492
  
  
 ---------------------------------------------------------------
 Warning -- This program may not be used in any manner that
 competes with the business of Gaussian, Inc. or will provide
 assistance to any competitor of Gaussian, Inc.  The licensee
 of this program is prohibited from giving any competitor of
 Gaussian, Inc. access to this program.  By using this program,
 the user acknowledges that Gaussian, Inc. is engaged in the
 business of creating and licensing software in the field of
 computational chemistry and represents and warrants to the
 licensee that it is not a competitor of Gaussian, Inc. and that
 it will not use this program in any manner prohibited above.
 ---------------------------------------------------------------
  

 Cite this work as:
 Gaussian 09, Revision D.01,
 M. J. Frisch, G. W. Trucks, H. B. Schlegel, G. E. Scuseria, 
 M. A. Robb, J. R. Cheeseman, G. Scalmani, V. Barone, B. Mennucci, 
 G. A. Petersson, H. Nakatsuji, M. Caricato, X. Li, H. P. Hratchian, 
 A. F. Izmaylov, J. Bloino, G. Zheng, J. L. Sonnenberg, M. Hada, 
 M. Ehara, K. Toyota, R. Fukuda, J. Hasegawa, M. Ishida, T. Nakajima, 
 Y. Honda, O. Kitao, H. Nakai, T. Vreven, J. A. Montgomery, Jr., 
 J. E. Peralta, F. Ogliaro, M. Bearpark, J. J. Heyd, E. Brothers, 
 K. N. Kudin, V. N. Staroverov, T. Keith, R. Kobayashi, J. Normand, 
 K. Raghavachari, A. Rendell, J. C. Burant, S. S. Iyengar, J. Tomasi, 
 M. Cossi, N. Rega, J. M. Millam, M. Klene, J. E. Knox, J. B. Cross, 
 V. Bakken, C. Adamo, J. Jaramillo, R. Gomperts, R. E. Stratmann, 
 O. Yazyev, A. J. Austin, R. Cammi, C. Pomelli, J. W. Ochterski, 
 R. L. Martin, K. Morokuma, V. G. Zakrzewski, G. A. Voth, 
 P. Salvador, J. J. Dannenberg, S. Dapprich, A. D. Daniels, 
 O. Farkas, J. B. Foresman, J. V. Ortiz, J. Cioslowski, 
 and D. J. Fox, Gaussian, Inc., Wallingford CT, 2013.
 
 ******************************************
 Gaussian 09:  EM64L-G09RevD.01 24-Apr-2013
                 1-Oct-2015 
 ******************************************
 %nproc=8
 Will use up to    8 processors via shared memory.
 %chk=ClF.chk
 ------------------------
 #P b3lyp/aug-cc-pvdz opt
 ------------------------
 1/14=-1,18=20,19=15,26=3,38=1/1,3;
 2/9=110,12=2,17=6,18=5,40=1/2;
 3/5=16,7=10,11=2,16=1,25=1,30=1,71=1,74=-5/1,2,3;
 4//1;
 5/5=2,38=5/2;
 6/7=2,8=2,9=2,10=2,28=1/1;
 7//1,2,3,16;
 1/14=-1,18=20,19=15,26=3/3(2);
 2/9=110/2;
 99//99;
 2/9=110/2;
 3/5=16,7=10,11=2,16=1,25=1,30=1,71=1,74=-5/1,2,3;
 4/5=5,16=3,69=1/1;
 5/5=2,38=5/2;
 7//1,2,3,16;
 1/14=-1,18=20,19=15,26=3/3(-5);
 2/9=110/2;
 6/7=2,8=2,9=2,10=2,19=2,28=1/1;
 99/9=1/99;
 Leave Link    1 at Thu Oct  1 12:04:39 2015, MaxMem=           0 cpu:         0.4
 (Enter /group/hpc-share/gaussian/2009D/g09/l101.exe)
 ---
 ClF
 ---
 Symbolic Z-matrix:
 Charge =  0 Multiplicity = 1
 cl
 f                    1    fcl2
       Variables:
  fcl2                  1.628                    
 
 NAtoms=      2 NQM=        2 NQMF=       0 NMMI=      0 NMMIF=      0
                NMic=       0 NMicF=      0.
                    Isotopes and Nuclear Properties:
 (Nuclear quadrupole moments (NQMom) in fm**2, nuclear magnetic moments (NMagM)
  in nuclear magnetons)

  Atom         1           2
 IAtWgt=          35          19
 AtmWgt=  34.9688527  18.9984033
 NucSpn=           3           1
 AtZEff=   0.0000000   0.0000000
 NQMom=   -8.1650000   0.0000000
 NMagM=    0.8218740   2.6288670
 AtZNuc=  17.0000000   9.0000000
 Leave Link  101 at Thu Oct  1 12:04:40 2015, MaxMem=    33554432 cpu:         1.0
 (Enter /group/hpc-share/gaussian/2009D/g09/l103.exe)

 GradGradGradGradGradGradGradGradGradGradGradGradGradGradGradGradGradGrad
 Berny optimization.
 Initialization pass.
                           ----------------------------
                           !    Initial Parameters    !
                           ! (Angstroms and Degrees)  !
 --------------------------                            --------------------------
 ! Name  Definition              Value          Derivative Info.                !
 --------------------------------------------------------------------------------
 ! R1    R(1,2)                  1.628          estimate D2E/DX2                !
 --------------------------------------------------------------------------------
 Trust Radius=3.00D-01 FncErr=1.00D-07 GrdErr=1.00D-06
 Number of steps in this run=     20 maximum allowed number of steps=    100.
 GradGradGradGradGradGradGradGradGradGradGradGradGradGradGradGradGradGrad

 Leave Link  103 at Thu Oct  1 12:04:40 2015, MaxMem=    33554432 cpu:         0.0
 (Enter /group/hpc-share/gaussian/2009D/g09/l202.exe)
                          Input orientation:                          
 ---------------------------------------------------------------------
 Center     Atomic      Atomic             Coordinates (Angstroms)
 Number     Number       Type             X           Y           Z
 ---------------------------------------------------------------------
      1         17           0        0.000000    0.000000    0.000000
      2          9           0        0.000000    0.000000    1.628000
 ---------------------------------------------------------------------
 Stoichiometry    ClF
 Framework group  C*V[C*(FCl)]
 Deg. of freedom     1
 Full point group                 C*V     NOp   4
 Largest Abelian subgroup         C2V     NOp   4
 Largest concise Abelian subgroup C1      NOp   1
                         Standard orientation:                         
 ---------------------------------------------------------------------
 Center     Atomic      Atomic             Coordinates (Angstroms)
 Number     Number       Type             X           Y           Z
 ---------------------------------------------------------------------
      1         17           0        0.000000    0.000000    0.563538
      2          9           0        0.000000    0.000000   -1.064462
 ---------------------------------------------------------------------
 Rotational constants (GHZ):      0.0000000     15.4896015     15.4896015
 Leave Link  202 at Thu Oct  1 12:04:40 2015, MaxMem=    33554432 cpu:         0.0
 (Enter /group/hpc-share/gaussian/2009D/g09/l301.exe)
 Standard basis: Aug-CC-pVDZ (5D, 7F)
 Ernie: Thresh=  0.10000D-02 Tol=  0.10000D-05 Strict=F.
 Ernie:  12 primitive shells out of 78 were deleted.
 There are    28 symmetry adapted cartesian basis functions of A1  symmetry.
 There are     4 symmetry adapted cartesian basis functions of A2  symmetry.
 There are    11 symmetry adapted cartesian basis functions of B1  symmetry.
 There are    11 symmetry adapted cartesian basis functions of B2  symmetry.
 There are    24 symmetry adapted basis functions of A1  symmetry.
 There are     4 symmetry adapted basis functions of A2  symmetry.
 There are    11 symmetry adapted basis functions of B1  symmetry.
 There are    11 symmetry adapted basis functions of B2  symmetry.
    50 basis functions,   124 primitive gaussians,    54 cartesian basis functions
    13 alpha electrons       13 beta electrons
       nuclear repulsion energy        49.7322560898 Hartrees.
 IExCor=  402 DFT=T Ex+Corr=B3LYP ExCW=0 ScaHFX=  0.200000
 ScaDFX=  0.800000  0.720000  1.000000  0.810000 ScalE2=  1.000000  1.000000
 IRadAn=      0 IRanWt=     -1 IRanGd=            0 ICorTp=0 IEmpDi=  4
 NAtoms=    2 NActive=    2 NUniq=    2 SFac= 1.00D+00 NAtFMM=   60 NAOKFM=F Big=F
 Integral buffers will be    131072 words long.
 Raffenetti 2 integral format.
 Two-electron integral symmetry is turned on.
 Leave Link  301 at Thu Oct  1 12:04:40 2015, MaxMem=    33554432 cpu:         0.8
 (Enter /group/hpc-share/gaussian/2009D/g09/l302.exe)
 NPDir=0 NMtPBC=     1 NCelOv=     1 NCel=       1 NClECP=     1 NCelD=      1
         NCelK=      1 NCelE2=     1 NClLst=     1 CellRange=     0.0.
 One-electron integrals computed using PRISM.
 NBasis=    50 RedAO= T EigKep=  1.40D-02  NBF=    24     4    11    11
 NBsUse=    50 1.00D-06 EigRej= -1.00D+00 NBFU=    24     4    11    11
 Precomputing XC quadrature grid using
 IXCGrd= 4 IRadAn=           0 IRanWt=          -1 IRanGd=           0 AccXCQ= 0.00D+00.
 Generated NRdTot=       0 NPtTot=           0 NUsed=           0 NTot=          32
 NSgBfM=    54    54    54    54    54 MxSgAt=     2 MxSgA2=     2.
 Leave Link  302 at Thu Oct  1 12:04:40 2015, MaxMem=    33554432 cpu:         1.8
 (Enter /group/hpc-share/gaussian/2009D/g09/l303.exe)
 DipDrv:  MaxL=1.
 Leave Link  303 at Thu Oct  1 12:04:41 2015, MaxMem=    33554432 cpu:         0.3
 (Enter /group/hpc-share/gaussian/2009D/g09/l401.exe)
 ExpMin= 4.66D-02 ExpMax= 1.28D+05 ExpMxC= 1.24D+03 IAcc=2 IRadAn=         4 AccDes= 0.00D+00
 Harris functional with IExCor=  402 and IRadAn=       4 diagonalized for initial guess.
 HarFok:  IExCor=  402 AccDes= 0.00D+00 IRadAn=         4 IDoV= 1 UseB2=F ITyADJ=14
 ICtDFT=  3500011 ScaDFX=  1.000000  1.000000  1.000000  1.000000
 FoFCou: FMM=F IPFlag=           0 FMFlag=      100000 FMFlg1=           0
         NFxFlg=           0 DoJE=T BraDBF=F KetDBF=T FulRan=T
         wScrn=  0.000000 ICntrl=     500 IOpCl=  0 I1Cent=   200000004 NGrid=           0
         NMat0=    1 NMatS0=      1 NMatT0=    0 NMatD0=    1 NMtDS0=    0 NMtDT0=    0
 Petite list used in FoFCou.
 Harris En= -559.942656998713    
 JPrj=0 DoOrth=F DoCkMO=F.
 Initial guess orbital symmetries:
       Occupied  (SG) (SG) (SG) (SG) (PI) (PI) (SG) (SG) (SG) (PI)
                 (PI) (PI) (PI)
       Virtual   (SG) (SG) (PI) (PI) (SG) (SG) (PI) (PI) (DLTA)
                 (DLTA) (SG) (PI) (PI) (SG) (PI) (PI) (SG) (SG)
                 (DLTA) (DLTA) (PI) (PI) (DLTA) (DLTA) (SG) (PI)
                 (PI) (SG) (PI) (PI) (SG) (SG) (DLTA) (DLTA) (PI)
                 (PI) (SG)
 The electronic state of the initial guess is 1-SG.
 Leave Link  401 at Thu Oct  1 12:04:41 2015, MaxMem=    33554432 cpu:         1.5
 (Enter /group/hpc-share/gaussian/2009D/g09/l502.exe)
 Closed shell SCF:
 Using DIIS extrapolation, IDIIS=  1040.
 Integral symmetry usage will be decided dynamically.
 Keep R1 ints in memory in symmetry-blocked form, NReq=1719048.
 IVT=       28200 IEndB=       28200 NGot=    33554432 MDV=    33305205
 LenX=    33305205 LenY=    33301848
 Requested convergence on RMS density matrix=1.00D-08 within 128 cycles.
 Requested convergence on MAX density matrix=1.00D-06.
 Requested convergence on             energy=1.00D-06.
 No special actions if energy rises.
 FoFCou: FMM=F IPFlag=           0 FMFlag=           0 FMFlg1=           0
         NFxFlg=           0 DoJE=F BraDBF=F KetDBF=F FulRan=T
         wScrn=  0.000000 ICntrl=     600 IOpCl=  0 I1Cent=           0 NGrid=           0
         NMat0=    1 NMatS0=   1275 NMatT0=    0 NMatD0=    1 NMtDS0=    0 NMtDT0=    0
 Petite list used in FoFCou.

 Cycle   1  Pass 1  IDiag  1:
 E= -559.962967695556    
 DIIS: error= 3.00D-02 at cycle   1 NSaved=   1.
 NSaved= 1 IEnMin= 1 EnMin= -559.962967695556     IErMin= 1 ErrMin= 3.00D-02
 ErrMax= 3.00D-02  0.00D+00 EMaxC= 1.00D-01 BMatC= 3.56D-02 BMatP= 3.56D-02
 IDIUse=3 WtCom= 7.00D-01 WtEn= 3.00D-01
 Coeff-Com:  0.100D+01
 Coeff-En:   0.100D+01
 Coeff:      0.100D+01
 Gap=     0.225 Goal=   None    Shift=    0.000
 GapD=    0.225 DampG=1.000 DampE=0.500 DampFc=0.5000 IDamp=-1.
 Damping current iteration by 5.00D-01
 RMSDP=6.22D-03 MaxDP=1.10D-01              OVMax= 1.70D-01

 Cycle   2  Pass 1  IDiag  1:
 E= -559.970005739083     Delta-E=       -0.007038043527 Rises=F Damp=T
 DIIS: error= 8.88D-03 at cycle   2 NSaved=   2.
 NSaved= 2 IEnMin= 2 EnMin= -559.970005739083     IErMin= 2 ErrMin= 8.88D-03
 ErrMax= 8.88D-03  0.00D+00 EMaxC= 1.00D-01 BMatC= 6.50D-03 BMatP= 3.56D-02
 IDIUse=3 WtCom= 9.11D-01 WtEn= 8.88D-02
 Coeff-Com:  0.209D+00 0.791D+00
 Coeff-En:   0.355D+00 0.645D+00
 Coeff:      0.222D+00 0.778D+00
 Gap=     0.229 Goal=   None    Shift=    0.000
 RMSDP=1.89D-03 MaxDP=2.82D-02 DE=-7.04D-03 OVMax= 1.24D-01

 Cycle   3  Pass 1  IDiag  1:
 E= -559.987265124406     Delta-E=       -0.017259385323 Rises=F Damp=F
 DIIS: error= 8.26D-03 at cycle   3 NSaved=   3.
 NSaved= 3 IEnMin= 3 EnMin= -559.987265124406     IErMin= 3 ErrMin= 8.26D-03
 ErrMax= 8.26D-03  0.00D+00 EMaxC= 1.00D-01 BMatC= 4.81D-03 BMatP= 6.50D-03
 IDIUse=3 WtCom= 9.17D-01 WtEn= 8.26D-02
 Coeff-Com:  0.833D-02 0.459D+00 0.532D+00
 Coeff-En:   0.000D+00 0.000D+00 0.100D+01
 Coeff:      0.765D-02 0.421D+00 0.571D+00
 Gap=     0.211 Goal=   None    Shift=    0.000
 RMSDP=9.82D-04 MaxDP=1.50D-02 DE=-1.73D-02 OVMax= 2.40D-02

 Cycle   4  Pass 1  IDiag  1:
 E= -559.990522968727     Delta-E=       -0.003257844321 Rises=F Damp=F
 DIIS: error= 1.83D-03 at cycle   4 NSaved=   4.
 NSaved= 4 IEnMin= 4 EnMin= -559.990522968727     IErMin= 4 ErrMin= 1.83D-03
 ErrMax= 1.83D-03  0.00D+00 EMaxC= 1.00D-01 BMatC= 1.86D-04 BMatP= 4.81D-03
 IDIUse=3 WtCom= 9.82D-01 WtEn= 1.83D-02
 Coeff-Com: -0.146D-01 0.399D-01 0.197D+00 0.778D+00
 Coeff-En:   0.000D+00 0.000D+00 0.000D+00 0.100D+01
 Coeff:     -0.143D-01 0.392D-01 0.193D+00 0.782D+00
 Gap=     0.211 Goal=   None    Shift=    0.000
 RMSDP=1.94D-04 MaxDP=2.47D-03 DE=-3.26D-03 OVMax= 4.11D-03

 Cycle   5  Pass 1  IDiag  1:
 E= -559.990670819079     Delta-E=       -0.000147850352 Rises=F Damp=F
 DIIS: error= 2.03D-04 at cycle   5 NSaved=   5.
 NSaved= 5 IEnMin= 5 EnMin= -559.990670819079     IErMin= 5 ErrMin= 2.03D-04
 ErrMax= 2.03D-04  0.00D+00 EMaxC= 1.00D-01 BMatC= 1.91D-06 BMatP= 1.86D-04
 IDIUse=3 WtCom= 9.98D-01 WtEn= 2.03D-03
 Coeff-Com: -0.569D-02 0.102D-01 0.567D-01 0.273D+00 0.666D+00
 Coeff-En:   0.000D+00 0.000D+00 0.000D+00 0.000D+00 0.100D+01
 Coeff:     -0.568D-02 0.102D-01 0.566D-01 0.272D+00 0.666D+00
 Gap=     0.211 Goal=   None    Shift=    0.000
 RMSDP=2.56D-05 MaxDP=3.53D-04 DE=-1.48D-04 OVMax= 7.20D-04

 Cycle   6  Pass 1  IDiag  1:
 E= -559.990673033192     Delta-E=       -0.000002214113 Rises=F Damp=F
 DIIS: error= 2.99D-05 at cycle   6 NSaved=   6.
 NSaved= 6 IEnMin= 6 EnMin= -559.990673033192     IErMin= 6 ErrMin= 2.99D-05
 ErrMax= 2.99D-05  0.00D+00 EMaxC= 1.00D-01 BMatC= 4.07D-08 BMatP= 1.91D-06
 IDIUse=1 WtCom= 1.00D+00 WtEn= 0.00D+00
 Coeff-Com: -0.378D-03-0.264D-03 0.372D-02 0.211D-01 0.133D+00 0.843D+00
 Coeff:     -0.378D-03-0.264D-03 0.372D-02 0.211D-01 0.133D+00 0.843D+00
 Gap=     0.211 Goal=   None    Shift=    0.000
 RMSDP=3.99D-06 MaxDP=6.02D-05 DE=-2.21D-06 OVMax= 8.75D-05

 Cycle   7  Pass 1  IDiag  1:
 E= -559.990673073899     Delta-E=       -0.000000040707 Rises=F Damp=F
 DIIS: error= 3.26D-06 at cycle   7 NSaved=   7.
 NSaved= 7 IEnMin= 7 EnMin= -559.990673073899     IErMin= 7 ErrMin= 3.26D-06
 ErrMax= 3.26D-06  0.00D+00 EMaxC= 1.00D-01 BMatC= 1.10D-09 BMatP= 4.07D-08
 IDIUse=1 WtCom= 1.00D+00 WtEn= 0.00D+00
 Coeff-Com:  0.551D-04-0.296D-03-0.628D-03-0.326D-02 0.118D-01 0.207D+00
 Coeff-Com:  0.785D+00
 Coeff:      0.551D-04-0.296D-03-0.628D-03-0.326D-02 0.118D-01 0.207D+00
 Coeff:      0.785D+00
 Gap=     0.211 Goal=   None    Shift=    0.000
 RMSDP=7.00D-07 MaxDP=1.36D-05 DE=-4.07D-08 OVMax= 9.72D-06

 Cycle   8  Pass 1  IDiag  1:
 E= -559.990673074844     Delta-E=       -0.000000000946 Rises=F Damp=F
 DIIS: error= 1.68D-07 at cycle   8 NSaved=   8.
 NSaved= 8 IEnMin= 8 EnMin= -559.990673074844     IErMin= 8 ErrMin= 1.68D-07
 ErrMax= 1.68D-07  0.00D+00 EMaxC= 1.00D-01 BMatC= 5.58D-13 BMatP= 1.10D-09
 IDIUse=1 WtCom= 1.00D+00 WtEn= 0.00D+00
 Coeff-Com:  0.120D-05 0.557D-05-0.202D-04-0.136D-03-0.836D-03-0.569D-02
 Coeff-Com: -0.273D-02 0.101D+01
 Coeff:      0.120D-05 0.557D-05-0.202D-04-0.136D-03-0.836D-03-0.569D-02
 Coeff:     -0.273D-02 0.101D+01
 Gap=     0.211 Goal=   None    Shift=    0.000
 RMSDP=2.02D-08 MaxDP=2.66D-07 DE=-9.46D-10 OVMax= 5.50D-07

 Cycle   9  Pass 1  IDiag  1:
 E= -559.990673074846     Delta-E=       -0.000000000002 Rises=F Damp=F
 DIIS: error= 2.54D-08 at cycle   9 NSaved=   9.
 NSaved= 9 IEnMin= 9 EnMin= -559.990673074846     IErMin= 9 ErrMin= 2.54D-08
 ErrMax= 2.54D-08  0.00D+00 EMaxC= 1.00D-01 BMatC= 3.67D-14 BMatP= 5.58D-13
 IDIUse=1 WtCom= 1.00D+00 WtEn= 0.00D+00
 Coeff-Com:  0.397D-06-0.256D-06 0.142D-05 0.985D-05-0.187D-04-0.922D-03
 Coeff-Com: -0.340D-02-0.161D-03 0.100D+01
 Coeff:      0.397D-06-0.256D-06 0.142D-05 0.985D-05-0.187D-04-0.922D-03
 Coeff:     -0.340D-02-0.161D-03 0.100D+01
 Gap=     0.211 Goal=   None    Shift=    0.000
 RMSDP=2.57D-09 MaxDP=3.16D-08 DE=-1.82D-12 OVMax= 5.29D-08

 SCF Done:  E(RB3LYP) =  -559.990673075     A.U. after    9 cycles
            NFock=  9  Conv=0.26D-08     -V/T= 2.0026
 KE= 5.585361717041D+02 PE=-1.431356495713D+03 EE= 2.630973948440D+02
 Leave Link  502 at Thu Oct  1 12:04:41 2015, MaxMem=    33554432 cpu:         2.1
 (Enter /group/hpc-share/gaussian/2009D/g09/l601.exe)
 Copying SCF densities to generalized density rwf, IOpCl= 0 IROHF=0.

 **********************************************************************

            Population analysis using the SCF density.

 **********************************************************************

 Orbital symmetries:
       Occupied  (SG) (SG) (SG) (SG) (PI) (PI) (SG) (SG) (SG) (PI)
                 (PI) (PI) (PI)
       Virtual   (SG) (SG) (PI) (PI) (SG) (SG) (PI) (PI) (DLTA)
                 (DLTA) (SG) (PI) (PI) (SG) (PI) (PI) (SG) (SG)
                 (PI) (PI) (DLTA) (DLTA) (SG) (DLTA) (DLTA) (PI)
                 (PI) (SG) (PI) (PI) (SG) (SG) (DLTA) (DLTA) (PI)
                 (PI) (SG)
 The electronic state is 1-SG.
 Alpha  occ. eigenvalues -- -101.64051 -24.77199  -9.55139  -7.32063  -7.30130
 Alpha  occ. eigenvalues --   -7.30130  -1.25897  -0.84550  -0.54919  -0.49850
 Alpha  occ. eigenvalues --   -0.49850  -0.33930  -0.33930
 Alpha virt. eigenvalues --   -0.12825   0.03699   0.06815   0.06815   0.07270
 Alpha virt. eigenvalues --    0.16418   0.18901   0.18901   0.28939   0.28939
 Alpha virt. eigenvalues --    0.33867   0.35974   0.35974   0.47119   0.66742
 Alpha virt. eigenvalues --    0.66742   0.71211   1.01618   1.06863   1.06863
 Alpha virt. eigenvalues --    1.07133   1.07178   1.11343   1.13460   1.13474
 Alpha virt. eigenvalues --    1.28907   1.28907   1.39806   1.44592   1.44592
 Alpha virt. eigenvalues --    1.84047   2.62753   4.37765   4.37766   4.47944
 Alpha virt. eigenvalues --    4.47944   4.55505
          Condensed to atoms (all electrons):
               1          2
     1  Cl  16.709344  -0.085471
     2  F   -0.085471   9.461598
 Mulliken charges:
               1
     1  Cl   0.376127
     2  F   -0.376127
 Sum of Mulliken charges =   0.00000
 Mulliken charges with hydrogens summed into heavy atoms:
               1
     1  Cl   0.376127
     2  F   -0.376127
 Electronic spatial extent (au):  <R**2>=             93.9456
 Charge=              0.0000 electrons
 Dipole moment (field-independent basis, Debye):
    X=              0.0000    Y=              0.0000    Z=              0.8655  Tot=              0.8655
 Quadrupole moment (field-independent basis, Debye-Ang):
   XX=            -17.5882   YY=            -17.5882   ZZ=            -16.2705
   XY=              0.0000   XZ=              0.0000   YZ=              0.0000
 Traceless Quadrupole moment (field-independent basis, Debye-Ang):
   XX=             -0.4392   YY=             -0.4392   ZZ=              0.8784
   XY=              0.0000   XZ=              0.0000   YZ=              0.0000
 Octapole moment (field-independent basis, Debye-Ang**2):
  XXX=              0.0000  YYY=              0.0000  ZZZ=             -2.0693  XYY=              0.0000
  XXY=              0.0000  XXZ=             -2.2288  XZZ=              0.0000  YZZ=              0.0000
  YYZ=             -2.2288  XYZ=              0.0000
 Hexadecapole moment (field-independent basis, Debye-Ang**3):
 XXXX=            -17.9830 YYYY=            -17.9830 ZZZZ=            -65.1823 XXXY=              0.0000
 XXXZ=              0.0000 YYYX=              0.0000 YYYZ=              0.0000 ZZZX=              0.0000
 ZZZY=              0.0000 XXYY=             -5.9943 XXZZ=            -15.4793 YYZZ=            -15.4793
 XXYZ=              0.0000 YYXZ=              0.0000 ZZXY=              0.0000
 N-N= 4.973225608985D+01 E-N=-1.431356495361D+03  KE= 5.585361717041D+02
 Symmetry A1   KE= 4.535231503951D+02
 Symmetry A2   KE=-4.075597249543D-54
 Symmetry B1   KE= 5.250651065449D+01
 Symmetry B2   KE= 5.250651065449D+01
 No NMR shielding tensors so no spin-rotation constants.
 Leave Link  601 at Thu Oct  1 12:04:42 2015, MaxMem=    33554432 cpu:         2.1
 (Enter /group/hpc-share/gaussian/2009D/g09/l701.exe)
 Compute integral first derivatives.
 ... and contract with generalized density number  0.
 Leave Link  701 at Thu Oct  1 12:04:42 2015, MaxMem=    33554432 cpu:         1.7
 (Enter /group/hpc-share/gaussian/2009D/g09/l702.exe)
 L702 exits ... SP integral derivatives will be done elsewhere.
 Leave Link  702 at Thu Oct  1 12:04:42 2015, MaxMem=    33554432 cpu:         0.1
 (Enter /group/hpc-share/gaussian/2009D/g09/l703.exe)
 Compute integral first derivatives, UseDBF=F ICtDFT=           0.
 Integral derivatives from FoFJK, PRISM(SPDF).
 Calling FoFJK, ICntrl=      2127 FMM=F ISym2X=1 I1Cent= 0 IOpClX= 0 NMat=1 NMatS=1 NMatT=0.
 FoFJK:  IHMeth= 1 ICntrl=    2127 DoSepK=F KAlg= 0 I1Cent=   0 FoldK=F
 IRaf=         0 NMat=   1 IRICut=       1 DoRegI=T DoRafI=F ISym2E= 1.
 FoFCou: FMM=F IPFlag=           0 FMFlag=      100000 FMFlg1=         800
         NFxFlg=           0 DoJE=F BraDBF=F KetDBF=F FulRan=T
         wScrn=  0.000000 ICntrl=    2127 IOpCl=  0 I1Cent=           0 NGrid=           0
         NMat0=    1 NMatS0=      1 NMatT0=    0 NMatD0=    1 NMtDS0=    0 NMtDT0=    0
 Petite list used in FoFCou.
 Leave Link  703 at Thu Oct  1 12:04:43 2015, MaxMem=    33554432 cpu:         2.5
 (Enter /group/hpc-share/gaussian/2009D/g09/l716.exe)
 Dipole        = 0.00000000D+00 0.00000000D+00 3.40508292D-01
 ***** Axes restored to original set *****
 -------------------------------------------------------------------
 Center     Atomic                   Forces (Hartrees/Bohr)
 Number     Number              X              Y              Z
 -------------------------------------------------------------------
      1       17           0.000000000    0.000000000   -0.027827321
      2        9           0.000000000    0.000000000    0.027827321
 -------------------------------------------------------------------
 Cartesian Forces:  Max     0.027827321 RMS     0.016066111
 Leave Link  716 at Thu Oct  1 12:04:43 2015, MaxMem=    33554432 cpu:         0.1
 (Enter /group/hpc-share/gaussian/2009D/g09/l103.exe)

 GradGradGradGradGradGradGradGradGradGradGradGradGradGradGradGradGradGrad
 Berny optimization.
 FormGI is forming the generalized inverse of G from B-inverse, IUseBI=4.
 Internal  Forces:  Max     0.027827321 RMS     0.027827321
 Search for a local minimum.
 Step number   1 out of a maximum of   20
 All quantities printed in internal units (Hartrees-Bohrs-Radians)
 RMS Force = .27827D-01 SwitMx=.10000D-02 MixMth= 1
 Mixed Optimization -- RFO/linear search
 Second derivative matrix not updated -- first step.
 The second derivative matrix:
                          R1
           R1           0.46163
 ITU=  0
     Eigenvalues ---    0.46163
 RFO step:  Lambda=-1.67137787D-03 EMin= 4.61634847D-01
 Linear search not attempted -- first point.
 Iteration  1 RMS(Cart)=  0.04247059 RMS(Int)=  0.00000000
 Iteration  2 RMS(Cart)=  0.00000000 RMS(Int)=  0.00000000
 ITry= 1 IFail=0 DXMaxC= 3.00D-02 DCOld= 1.00D+10 DXMaxT= 3.00D-01 DXLimC= 3.00D+00 Rises=F
 ClnCor:  largest displacement from symmetrization is 3.47D-18 for atom     1.
 Variable       Old X    -DE/DX   Delta X   Delta X   Delta X     New X
                                 (Linear)    (Quad)   (Total)
    R1        3.07647   0.02783   0.00000   0.06006   0.06006   3.13654
         Item               Value     Threshold  Converged?
 Maximum Force            0.027827     0.000450     NO 
 RMS     Force            0.027827     0.000300     NO 
 Maximum Displacement     0.030031     0.001800     NO 
 RMS     Displacement     0.042471     0.001200     NO 
 Predicted change in Energy=-8.387037D-04
 Lowest energy point so far.  Saving SCF results.
 GradGradGradGradGradGradGradGradGradGradGradGradGradGradGradGradGradGrad

 Leave Link  103 at Thu Oct  1 12:04:43 2015, MaxMem=    33554432 cpu:         0.1
 (Enter /group/hpc-share/gaussian/2009D/g09/l202.exe)
                          Input orientation:                          
 ---------------------------------------------------------------------
 Center     Atomic      Atomic             Coordinates (Angstroms)
 Number     Number       Type             X           Y           Z
 ---------------------------------------------------------------------
      1         17           0        0.000000    0.000000   -0.015892
      2          9           0        0.000000    0.000000    1.643892
 ---------------------------------------------------------------------
 Stoichiometry    ClF
 Framework group  C*V[C*(FCl)]
 Deg. of freedom     1
 Full point group                 C*V     NOp   4
 RotChk:  IX=0 Diff= 0.00D+00
 Largest Abelian subgroup         C2V     NOp   4
 Largest concise Abelian subgroup C1      NOp   1
                         Standard orientation:                         
 ---------------------------------------------------------------------
 Center     Atomic      Atomic             Coordinates (Angstroms)
 Number     Number       Type             X           Y           Z
 ---------------------------------------------------------------------
      1         17           0        0.000000    0.000000    0.574541
      2          9           0        0.000000    0.000000   -1.085243
 ---------------------------------------------------------------------
 Rotational constants (GHZ):      0.0000000     14.9020515     14.9020515
 Leave Link  202 at Thu Oct  1 12:04:43 2015, MaxMem=    33554432 cpu:         0.0
 (Enter /group/hpc-share/gaussian/2009D/g09/l301.exe)
 Standard basis: Aug-CC-pVDZ (5D, 7F)
 Ernie: Thresh=  0.10000D-02 Tol=  0.10000D-05 Strict=F.
 Ernie:  12 primitive shells out of 78 were deleted.
 There are    28 symmetry adapted cartesian basis functions of A1  symmetry.
 There are     4 symmetry adapted cartesian basis functions of A2  symmetry.
 There are    11 symmetry adapted cartesian basis functions of B1  symmetry.
 There are    11 symmetry adapted cartesian basis functions of B2  symmetry.
 There are    24 symmetry adapted basis functions of A1  symmetry.
 There are     4 symmetry adapted basis functions of A2  symmetry.
 There are    11 symmetry adapted basis functions of B1  symmetry.
 There are    11 symmetry adapted basis functions of B2  symmetry.
    50 basis functions,   124 primitive gaussians,    54 cartesian basis functions
    13 alpha electrons       13 beta electrons
       nuclear repulsion energy        48.7799182201 Hartrees.
 IExCor=  402 DFT=T Ex+Corr=B3LYP ExCW=0 ScaHFX=  0.200000
 ScaDFX=  0.800000  0.720000  1.000000  0.810000 ScalE2=  1.000000  1.000000
 IRadAn=      0 IRanWt=     -1 IRanGd=            0 ICorTp=0 IEmpDi=  4
 NAtoms=    2 NActive=    2 NUniq=    2 SFac= 1.00D+00 NAtFMM=   60 NAOKFM=F Big=F
 Integral buffers will be    131072 words long.
 Raffenetti 2 integral format.
 Two-electron integral symmetry is turned on.
 Leave Link  301 at Thu Oct  1 12:04:43 2015, MaxMem=    33554432 cpu:         0.4
 (Enter /group/hpc-share/gaussian/2009D/g09/l302.exe)
 NPDir=0 NMtPBC=     1 NCelOv=     1 NCel=       1 NClECP=     1 NCelD=      1
         NCelK=      1 NCelE2=     1 NClLst=     1 CellRange=     0.0.
 One-electron integrals computed using PRISM.
 NBasis=    50 RedAO= T EigKep=  1.50D-02  NBF=    24     4    11    11
 NBsUse=    50 1.00D-06 EigRej= -1.00D+00 NBFU=    24     4    11    11
 Precomputing XC quadrature grid using
 IXCGrd= 4 IRadAn=           0 IRanWt=          -1 IRanGd=           0 AccXCQ= 0.00D+00.
 Generated NRdTot=       0 NPtTot=           0 NUsed=           0 NTot=          32
 NSgBfM=    54    54    54    54    54 MxSgAt=     2 MxSgA2=     2.
 Leave Link  302 at Thu Oct  1 12:04:43 2015, MaxMem=    33554432 cpu:         1.6
 (Enter /group/hpc-share/gaussian/2009D/g09/l303.exe)
 DipDrv:  MaxL=1.
 Leave Link  303 at Thu Oct  1 12:04:43 2015, MaxMem=    33554432 cpu:         0.2
 (Enter /group/hpc-share/gaussian/2009D/g09/l401.exe)
 Initial guess from the checkpoint file:  "ClF.chk"
 B after Tr=     0.000000    0.000000    0.000000
         Rot=    1.000000    0.000000    0.000000    0.000000 Ang=   0.00 deg.
 Guess basis will be translated and rotated to current coordinates.
 JPrj=2 DoOrth=T DoCkMO=T.
 Initial guess orbital symmetries:
       Occupied  (SG) (SG) (SG) (SG) (PI) (PI) (SG) (SG) (SG) (PI)
                 (PI) (PI) (PI)
       Virtual   (SG) (SG) (SG) (SG) (DLTA) (SG) (DLTA) (SG) (SG)
                 (SG) (SG) (SG) (SG) (DLTA) (SG) (DLTA) (SG) (DLTA)
                 (DLTA) (DLTA) (DLTA) (PI) (PI) (PI) (PI) (PI)
                 (PI) (PI) (PI) (PI) (PI) (PI) (PI) (PI) (PI) (PI)
                 (PI)
 The electronic state of the initial guess is 1-SG.
 Generating alternative initial guess.
 ExpMin= 4.66D-02 ExpMax= 1.28D+05 ExpMxC= 1.24D+03 IAcc=2 IRadAn=         4 AccDes= 0.00D+00
 Harris functional with IExCor=  402 and IRadAn=       4 diagonalized for initial guess.
 HarFok:  IExCor=  402 AccDes= 0.00D+00 IRadAn=         4 IDoV= 1 UseB2=F ITyADJ=14
 ICtDFT=  3500011 ScaDFX=  1.000000  1.000000  1.000000  1.000000
 FoFCou: FMM=F IPFlag=           0 FMFlag=      100000 FMFlg1=           0
         NFxFlg=           0 DoJE=T BraDBF=F KetDBF=T FulRan=T
         wScrn=  0.000000 ICntrl=     500 IOpCl=  0 I1Cent=   200000004 NGrid=           0
         NMat0=    1 NMatS0=      1 NMatT0=    0 NMatD0=    1 NMtDS0=    0 NMtDT0=    0
 Petite list used in FoFCou.
 Harris En= -559.945925218487    
 Leave Link  401 at Thu Oct  1 12:04:44 2015, MaxMem=    33554432 cpu:         1.8
 (Enter /group/hpc-share/gaussian/2009D/g09/l502.exe)
 Closed shell SCF:
 Using DIIS extrapolation, IDIIS=  1040.
 Integral symmetry usage will be decided dynamically.
 Keep R1 ints in memory in symmetry-blocked form, NReq=1719048.
 IVT=       28200 IEndB=       28200 NGot=    33554432 MDV=    33305205
 LenX=    33305205 LenY=    33301848
 Requested convergence on RMS density matrix=1.00D-08 within 128 cycles.
 Requested convergence on MAX density matrix=1.00D-06.
 Requested convergence on             energy=1.00D-06.
 No special actions if energy rises.
 FoFCou: FMM=F IPFlag=           0 FMFlag=           0 FMFlg1=           0
         NFxFlg=           0 DoJE=F BraDBF=F KetDBF=F FulRan=T
         wScrn=  0.000000 ICntrl=     600 IOpCl=  0 I1Cent=           0 NGrid=           0
         NMat0=    1 NMatS0=   1275 NMatT0=    0 NMatD0=    1 NMtDS0=    0 NMtDT0=    0
 Petite list used in FoFCou.

 Cycle   1  Pass 1  IDiag  1:
 E= -559.991411022518    
 DIIS: error= 2.66D-03 at cycle   1 NSaved=   1.
 NSaved= 1 IEnMin= 1 EnMin= -559.991411022518     IErMin= 1 ErrMin= 2.66D-03
 ErrMax= 2.66D-03  0.00D+00 EMaxC= 1.00D-01 BMatC= 2.70D-04 BMatP= 2.70D-04
 IDIUse=3 WtCom= 9.73D-01 WtEn= 2.66D-02
 Coeff-Com:  0.100D+01
 Coeff-En:   0.100D+01
 Coeff:      0.100D+01
 Gap=     0.616 Goal=   None    Shift=    0.000
 GapD=    0.616 DampG=2.000 DampE=1.000 DampFc=2.0000 IDamp=-1.
 RMSDP=4.84D-04 MaxDP=6.37D-03              OVMax= 9.04D-03

 Cycle   2  Pass 1  IDiag  1:
 E= -559.991660386799     Delta-E=       -0.000249364280 Rises=F Damp=F
 DIIS: error= 1.32D-03 at cycle   2 NSaved=   2.
 NSaved= 2 IEnMin= 2 EnMin= -559.991660386799     IErMin= 2 ErrMin= 1.32D-03
 ErrMax= 1.32D-03  0.00D+00 EMaxC= 1.00D-01 BMatC= 9.92D-05 BMatP= 2.70D-04
 IDIUse=3 WtCom= 9.87D-01 WtEn= 1.32D-02
 Coeff-Com:  0.304D+00 0.696D+00
 Coeff-En:   0.000D+00 0.100D+01
 Coeff:      0.300D+00 0.700D+00
 Gap=     0.202 Goal=   None    Shift=    0.000
 RMSDP=2.36D-04 MaxDP=4.48D-03 DE=-2.49D-04 OVMax= 7.19D-03

 Cycle   3  Pass 1  IDiag  1:
 E= -559.991637542897     Delta-E=        0.000022843902 Rises=F Damp=F
 DIIS: error= 1.61D-03 at cycle   3 NSaved=   3.
 NSaved= 3 IEnMin= 2 EnMin= -559.991660386799     IErMin= 2 ErrMin= 1.32D-03
 ErrMax= 1.61D-03  0.00D+00 EMaxC= 1.00D-01 BMatC= 1.24D-04 BMatP= 9.92D-05
 IDIUse=3 WtCom= 1.99D-01 WtEn= 8.01D-01
 Coeff-Com: -0.247D-02 0.529D+00 0.473D+00
 Coeff-En:   0.000D+00 0.554D+00 0.446D+00
 Coeff:     -0.493D-03 0.549D+00 0.451D+00
 Gap=     0.202 Goal=   None    Shift=    0.000
 RMSDP=1.25D-04 MaxDP=2.65D-03 DE= 2.28D-05 OVMax= 4.22D-03

 Cycle   4  Pass 1  IDiag  1:
 E= -559.991728294888     Delta-E=       -0.000090751991 Rises=F Damp=F
 DIIS: error= 7.74D-05 at cycle   4 NSaved=   4.
 NSaved= 4 IEnMin= 4 EnMin= -559.991728294888     IErMin= 4 ErrMin= 7.74D-05
 ErrMax= 7.74D-05  0.00D+00 EMaxC= 1.00D-01 BMatC= 2.91D-07 BMatP= 9.92D-05
 IDIUse=1 WtCom= 1.00D+00 WtEn= 0.00D+00
 Coeff-Com: -0.101D-01 0.127D+00 0.907D-01 0.793D+00
 Coeff:     -0.101D-01 0.127D+00 0.907D-01 0.793D+00
 Gap=     0.202 Goal=   None    Shift=    0.000
 RMSDP=5.08D-06 MaxDP=7.74D-05 DE=-9.08D-05 OVMax= 9.97D-05

 Cycle   5  Pass 1  IDiag  1:
 E= -559.991728465105     Delta-E=       -0.000000170217 Rises=F Damp=F
 DIIS: error= 4.48D-06 at cycle   5 NSaved=   5.
 NSaved= 5 IEnMin= 5 EnMin= -559.991728465105     IErMin= 5 ErrMin= 4.48D-06
 ErrMax= 4.48D-06  0.00D+00 EMaxC= 1.00D-01 BMatC= 1.61D-09 BMatP= 2.91D-07
 IDIUse=1 WtCom= 1.00D+00 WtEn= 0.00D+00
 Coeff-Com: -0.991D-03 0.726D-02 0.419D-02 0.898D-01 0.900D+00
 Coeff:     -0.991D-03 0.726D-02 0.419D-02 0.898D-01 0.900D+00
 Gap=     0.202 Goal=   None    Shift=    0.000
 RMSDP=1.31D-06 MaxDP=2.00D-05 DE=-1.70D-07 OVMax= 3.15D-05

 Cycle   6  Pass 1  IDiag  1:
 E= -559.991728466356     Delta-E=       -0.000000001251 Rises=F Damp=F
 DIIS: error= 2.49D-06 at cycle   6 NSaved=   6.
 NSaved= 6 IEnMin= 6 EnMin= -559.991728466356     IErMin= 6 ErrMin= 2.49D-06
 ErrMax= 2.49D-06  0.00D+00 EMaxC= 1.00D-01 BMatC= 5.58D-10 BMatP= 1.61D-09
 IDIUse=1 WtCom= 1.00D+00 WtEn= 0.00D+00
 Coeff-Com:  0.716D-04-0.336D-02-0.184D-02-0.549D-02 0.328D+00 0.682D+00
 Coeff:      0.716D-04-0.336D-02-0.184D-02-0.549D-02 0.328D+00 0.682D+00
 Gap=     0.202 Goal=   None    Shift=    0.000
 RMSDP=4.99D-07 MaxDP=9.34D-06 DE=-1.25D-09 OVMax= 9.14D-06

 Cycle   7  Pass 1  IDiag  1:
 E= -559.991728466959     Delta-E=       -0.000000000603 Rises=F Damp=F
 DIIS: error= 1.29D-07 at cycle   7 NSaved=   7.
 NSaved= 7 IEnMin= 7 EnMin= -559.991728466959     IErMin= 7 ErrMin= 1.29D-07
 ErrMax= 1.29D-07  0.00D+00 EMaxC= 1.00D-01 BMatC= 1.49D-12 BMatP= 5.58D-10
 IDIUse=1 WtCom= 1.00D+00 WtEn= 0.00D+00
 Coeff-Com:  0.177D-04-0.236D-03-0.299D-04-0.179D-02 0.414D-02 0.323D-01
 Coeff-Com:  0.966D+00
 Coeff:      0.177D-04-0.236D-03-0.299D-04-0.179D-02 0.414D-02 0.323D-01
 Coeff:      0.966D+00
 Gap=     0.202 Goal=   None    Shift=    0.000
 RMSDP=2.30D-08 MaxDP=2.39D-07 DE=-6.03D-10 OVMax= 4.90D-07

 Cycle   8  Pass 1  IDiag  1:
 E= -559.991728466961     Delta-E=       -0.000000000002 Rises=F Damp=F
 DIIS: error= 5.25D-08 at cycle   8 NSaved=   8.
 NSaved= 8 IEnMin= 8 EnMin= -559.991728466961     IErMin= 8 ErrMin= 5.25D-08
 ErrMax= 5.25D-08  0.00D+00 EMaxC= 1.00D-01 BMatC= 1.55D-13 BMatP= 1.49D-12
 IDIUse=1 WtCom= 1.00D+00 WtEn= 0.00D+00
 Coeff-Com:  0.382D-05 0.179D-04 0.497D-04-0.673D-03-0.110D-01-0.120D-01
 Coeff-Com:  0.408D+00 0.616D+00
 Coeff:      0.382D-05 0.179D-04 0.497D-04-0.673D-03-0.110D-01-0.120D-01
 Coeff:      0.408D+00 0.616D+00
 Gap=     0.202 Goal=   None    Shift=    0.000
 RMSDP=6.64D-09 MaxDP=8.42D-08 DE=-2.27D-12 OVMax= 1.37D-07

 SCF Done:  E(RB3LYP) =  -559.991728467     A.U. after    8 cycles
            NFock=  8  Conv=0.66D-08     -V/T= 2.0027
 KE= 5.584771461766D+02 PE=-1.429426038813D+03 EE= 2.621772459496D+02
 Leave Link  502 at Thu Oct  1 12:04:44 2015, MaxMem=    33554432 cpu:         1.7
 (Enter /group/hpc-share/gaussian/2009D/g09/l701.exe)
 Compute integral first derivatives.
 ... and contract with generalized density number  0.
 Leave Link  701 at Thu Oct  1 12:04:44 2015, MaxMem=    33554432 cpu:         1.1
 (Enter /group/hpc-share/gaussian/2009D/g09/l702.exe)
 L702 exits ... SP integral derivatives will be done elsewhere.
 Leave Link  702 at Thu Oct  1 12:04:44 2015, MaxMem=    33554432 cpu:         0.1
 (Enter /group/hpc-share/gaussian/2009D/g09/l703.exe)
 Compute integral first derivatives, UseDBF=F ICtDFT=           0.
 Integral derivatives from FoFJK, PRISM(SPDF).
 Calling FoFJK, ICntrl=      2127 FMM=F ISym2X=1 I1Cent= 0 IOpClX= 0 NMat=1 NMatS=1 NMatT=0.
 FoFJK:  IHMeth= 1 ICntrl=    2127 DoSepK=F KAlg= 0 I1Cent=   0 FoldK=F
 IRaf=         0 NMat=   1 IRICut=       1 DoRegI=T DoRafI=F ISym2E= 1.
 FoFCou: FMM=F IPFlag=           0 FMFlag=      100000 FMFlg1=         800
         NFxFlg=           0 DoJE=F BraDBF=F KetDBF=F FulRan=T
         wScrn=  0.000000 ICntrl=    2127 IOpCl=  0 I1Cent=           0 NGrid=           0
         NMat0=    1 NMatS0=      1 NMatT0=    0 NMatD0=    1 NMtDS0=    0 NMtDT0=    0
 Petite list used in FoFCou.
 Leave Link  703 at Thu Oct  1 12:04:45 2015, MaxMem=    33554432 cpu:         2.2
 (Enter /group/hpc-share/gaussian/2009D/g09/l716.exe)
 Dipole        = 0.00000000D+00 0.00000000D+00 3.76196912D-01
 ***** Axes restored to original set *****
 -------------------------------------------------------------------
 Center     Atomic                   Forces (Hartrees/Bohr)
 Number     Number              X              Y              Z
 -------------------------------------------------------------------
      1       17           0.000000000    0.000000000   -0.007853188
      2        9           0.000000000    0.000000000    0.007853188
 -------------------------------------------------------------------
 Cartesian Forces:  Max     0.007853188 RMS     0.004534040
 Leave Link  716 at Thu Oct  1 12:04:45 2015, MaxMem=    33554432 cpu:         0.2
 (Enter /group/hpc-share/gaussian/2009D/g09/l103.exe)

 GradGradGradGradGradGradGradGradGradGradGradGradGradGradGradGradGradGrad
 Berny optimization.
 Using GEDIIS/GDIIS optimizer.
 Red2BG is reusing G-inverse.
 Internal  Forces:  Max     0.007853188 RMS     0.007853188
 Search for a local minimum.
 Step number   2 out of a maximum of   20
 All quantities printed in internal units (Hartrees-Bohrs-Radians)
 RMS Force = .78532D-02 SwitMx=.10000D-02 MixMth= 1
 Mixed Optimization -- RFO/linear search
 Update second derivatives using D2CorX and points    1    2
 DE= -1.06D-03 DEPred=-8.39D-04 R= 1.26D+00
 TightC=F SS=  1.41D+00  RLast= 6.01D-02 DXNew= 5.0454D-01 1.8019D-01
 Trust test= 1.26D+00 RLast= 6.01D-02 DXMaxT set to 3.00D-01
 The second derivative matrix:
                          R1
           R1           0.33256
 ITU=  1  0
 Use linear search instead of GDIIS.
     Eigenvalues ---    0.33256
 RFO step:  Lambda= 0.00000000D+00 EMin= 3.32555917D-01
 Quartic linear search produced a step of  0.44353.
 Iteration  1 RMS(Cart)=  0.01883696 RMS(Int)=  0.00000000
 Iteration  2 RMS(Cart)=  0.00000000 RMS(Int)=  0.00000000
 ITry= 1 IFail=0 DXMaxC= 1.33D-02 DCOld= 1.00D+10 DXMaxT= 3.00D-01 DXLimC= 3.00D+00 Rises=F
 ClnCor:  largest displacement from symmetrization is 0.00D+00 for atom     0.
 Variable       Old X    -DE/DX   Delta X   Delta X   Delta X     New X
                                 (Linear)    (Quad)   (Total)
    R1        3.13654   0.00785   0.02664   0.00000   0.02664   3.16318
         Item               Value     Threshold  Converged?
 Maximum Force            0.007853     0.000450     NO 
 RMS     Force            0.007853     0.000300     NO 
 Maximum Displacement     0.013320     0.001800     NO 
 RMS     Displacement     0.018837     0.001200     NO 
 Predicted change in Energy=-9.120370D-05
 Lowest energy point so far.  Saving SCF results.
 GradGradGradGradGradGradGradGradGradGradGradGradGradGradGradGradGradGrad

 Leave Link  103 at Thu Oct  1 12:04:45 2015, MaxMem=    33554432 cpu:         0.0
 (Enter /group/hpc-share/gaussian/2009D/g09/l202.exe)
                          Input orientation:                          
 ---------------------------------------------------------------------
 Center     Atomic      Atomic             Coordinates (Angstroms)
 Number     Number       Type             X           Y           Z
 ---------------------------------------------------------------------
      1         17           0        0.000000    0.000000   -0.022940
      2          9           0        0.000000    0.000000    1.650940
 ---------------------------------------------------------------------
 Stoichiometry    ClF
 Framework group  C*V[C*(FCl)]
 Deg. of freedom     1
 Full point group                 C*V     NOp   4
 RotChk:  IX=0 Diff= 0.00D+00
 Largest Abelian subgroup         C2V     NOp   4
 Largest concise Abelian subgroup C1      NOp   1
                         Standard orientation:                         
 ---------------------------------------------------------------------
 Center     Atomic      Atomic             Coordinates (Angstroms)
 Number     Number       Type             X           Y           Z
 ---------------------------------------------------------------------
      1         17           0        0.000000    0.000000    0.579420
      2          9           0        0.000000    0.000000   -1.094460
 ---------------------------------------------------------------------
 Rotational constants (GHZ):      0.0000000     14.6521057     14.6521057
 Leave Link  202 at Thu Oct  1 12:04:45 2015, MaxMem=    33554432 cpu:         0.0
 (Enter /group/hpc-share/gaussian/2009D/g09/l301.exe)
 Standard basis: Aug-CC-pVDZ (5D, 7F)
 Ernie: Thresh=  0.10000D-02 Tol=  0.10000D-05 Strict=F.
 Ernie:  12 primitive shells out of 78 were deleted.
 There are    28 symmetry adapted cartesian basis functions of A1  symmetry.
 There are     4 symmetry adapted cartesian basis functions of A2  symmetry.
 There are    11 symmetry adapted cartesian basis functions of B1  symmetry.
 There are    11 symmetry adapted cartesian basis functions of B2  symmetry.
 There are    24 symmetry adapted basis functions of A1  symmetry.
 There are     4 symmetry adapted basis functions of A2  symmetry.
 There are    11 symmetry adapted basis functions of B1  symmetry.
 There are    11 symmetry adapted basis functions of B2  symmetry.
    50 basis functions,   124 primitive gaussians,    54 cartesian basis functions
    13 alpha electrons       13 beta electrons
       nuclear repulsion energy        48.3691059067 Hartrees.
 IExCor=  402 DFT=T Ex+Corr=B3LYP ExCW=0 ScaHFX=  0.200000
 ScaDFX=  0.800000  0.720000  1.000000  0.810000 ScalE2=  1.000000  1.000000
 IRadAn=      0 IRanWt=     -1 IRanGd=            0 ICorTp=0 IEmpDi=  4
 NAtoms=    2 NActive=    2 NUniq=    2 SFac= 1.00D+00 NAtFMM=   60 NAOKFM=F Big=F
 Integral buffers will be    131072 words long.
 Raffenetti 2 integral format.
 Two-electron integral symmetry is turned on.
 Leave Link  301 at Thu Oct  1 12:04:45 2015, MaxMem=    33554432 cpu:         0.4
 (Enter /group/hpc-share/gaussian/2009D/g09/l302.exe)
 NPDir=0 NMtPBC=     1 NCelOv=     1 NCel=       1 NClECP=     1 NCelD=      1
         NCelK=      1 NCelE2=     1 NClLst=     1 CellRange=     0.0.
 One-electron integrals computed using PRISM.
 NBasis=    50 RedAO= T EigKep=  1.55D-02  NBF=    24     4    11    11
 NBsUse=    50 1.00D-06 EigRej= -1.00D+00 NBFU=    24     4    11    11
 Precomputing XC quadrature grid using
 IXCGrd= 4 IRadAn=           0 IRanWt=          -1 IRanGd=           0 AccXCQ= 0.00D+00.
 Generated NRdTot=       0 NPtTot=           0 NUsed=           0 NTot=          32
 NSgBfM=    54    54    54    54    54 MxSgAt=     2 MxSgA2=     2.
 Leave Link  302 at Thu Oct  1 12:04:45 2015, MaxMem=    33554432 cpu:         1.5
 (Enter /group/hpc-share/gaussian/2009D/g09/l303.exe)
 DipDrv:  MaxL=1.
 Leave Link  303 at Thu Oct  1 12:04:45 2015, MaxMem=    33554432 cpu:         0.1
 (Enter /group/hpc-share/gaussian/2009D/g09/l401.exe)
 Initial guess from the checkpoint file:  "ClF.chk"
 B after Tr=     0.000000    0.000000    0.000000
         Rot=    1.000000    0.000000    0.000000    0.000000 Ang=   0.00 deg.
 Guess basis will be translated and rotated to current coordinates.
 JPrj=2 DoOrth=T DoCkMO=T.
 Initial guess orbital symmetries:
       Occupied  (SG) (SG) (SG) (SG) (PI) (PI) (SG) (SG) (SG) (PI)
                 (PI) (PI) (PI)
       Virtual   (SG) (SG) (SG) (SG) (DLTA) (SG) (DLTA) (SG) (SG)
                 (SG) (SG) (SG) (SG) (DLTA) (SG) (DLTA) (SG) (DLTA)
                 (DLTA) (DLTA) (DLTA) (PI) (PI) (PI) (PI) (PI)
                 (PI) (PI) (PI) (PI) (PI) (PI) (PI) (PI) (PI) (PI)
                 (PI)
 The electronic state of the initial guess is 1-SG.
 Leave Link  401 at Thu Oct  1 12:04:45 2015, MaxMem=    33554432 cpu:         0.8
 (Enter /group/hpc-share/gaussian/2009D/g09/l502.exe)
 Closed shell SCF:
 Using DIIS extrapolation, IDIIS=  1040.
 Integral symmetry usage will be decided dynamically.
 Keep R1 ints in memory in symmetry-blocked form, NReq=1719048.
 IVT=       28200 IEndB=       28200 NGot=    33554432 MDV=    33305205
 LenX=    33305205 LenY=    33301848
 Requested convergence on RMS density matrix=1.00D-08 within 128 cycles.
 Requested convergence on MAX density matrix=1.00D-06.
 Requested convergence on             energy=1.00D-06.
 No special actions if energy rises.
 FoFCou: FMM=F IPFlag=           0 FMFlag=           0 FMFlg1=           0
         NFxFlg=           0 DoJE=F BraDBF=F KetDBF=F FulRan=T
         wScrn=  0.000000 ICntrl=     600 IOpCl=  0 I1Cent=           0 NGrid=           0
         NMat0=    1 NMatS0=   1275 NMatT0=    0 NMatD0=    1 NMtDS0=    0 NMtDT0=    0
 Petite list used in FoFCou.

 Cycle   1  Pass 1  IDiag  1:
 E= -559.991774042214    
 DIIS: error= 1.07D-03 at cycle   1 NSaved=   1.
 NSaved= 1 IEnMin= 1 EnMin= -559.991774042214     IErMin= 1 ErrMin= 1.07D-03
 ErrMax= 1.07D-03  0.00D+00 EMaxC= 1.00D-01 BMatC= 4.79D-05 BMatP= 4.79D-05
 IDIUse=3 WtCom= 9.89D-01 WtEn= 1.07D-02
 Coeff-Com:  0.100D+01
 Coeff-En:   0.100D+01
 Coeff:      0.100D+01
 Gap=     0.618 Goal=   None    Shift=    0.000
 GapD=    0.618 DampG=2.000 DampE=1.000 DampFc=2.0000 IDamp=-1.
 RMSDP=2.09D-04 MaxDP=2.74D-03              OVMax= 3.99D-03

 Cycle   2  Pass 1  IDiag  1:
 E= -559.991818062879     Delta-E=       -0.000044020665 Rises=F Damp=F
 DIIS: error= 6.15D-04 at cycle   2 NSaved=   2.
 NSaved= 2 IEnMin= 2 EnMin= -559.991818062879     IErMin= 2 ErrMin= 6.15D-04
 ErrMax= 6.15D-04  0.00D+00 EMaxC= 1.00D-01 BMatC= 1.94D-05 BMatP= 4.79D-05
 IDIUse=3 WtCom= 9.94D-01 WtEn= 6.15D-03
 Coeff-Com:  0.322D+00 0.678D+00
 Coeff-En:   0.000D+00 0.100D+01
 Coeff:      0.320D+00 0.680D+00
 Gap=     0.198 Goal=   None    Shift=    0.000
 RMSDP=1.03D-04 MaxDP=1.99D-03 DE=-4.40D-05 OVMax= 3.22D-03

 Cycle   3  Pass 1  IDiag  1:
 E= -559.991814547564     Delta-E=        0.000003515316 Rises=F Damp=F
 DIIS: error= 7.28D-04 at cycle   3 NSaved=   3.
 NSaved= 3 IEnMin= 2 EnMin= -559.991818062879     IErMin= 2 ErrMin= 6.15D-04
 ErrMax= 7.28D-04  0.00D+00 EMaxC= 1.00D-01 BMatC= 2.30D-05 BMatP= 1.94D-05
 IDIUse=3 WtCom= 2.70D-01 WtEn= 7.30D-01
 Coeff-Com: -0.190D-02 0.522D+00 0.480D+00
 Coeff-En:   0.000D+00 0.543D+00 0.457D+00
 Coeff:     -0.515D-03 0.538D+00 0.463D+00
 Gap=     0.198 Goal=   None    Shift=    0.000
 RMSDP=5.49D-05 MaxDP=1.17D-03 DE= 3.52D-06 OVMax= 1.89D-03

 Cycle   4  Pass 1  IDiag  1:
 E= -559.991831530669     Delta-E=       -0.000016983105 Rises=F Damp=F
 DIIS: error= 2.84D-05 at cycle   4 NSaved=   4.
 NSaved= 4 IEnMin= 4 EnMin= -559.991831530669     IErMin= 4 ErrMin= 2.84D-05
 ErrMax= 2.84D-05  0.00D+00 EMaxC= 1.00D-01 BMatC= 3.82D-08 BMatP= 1.94D-05
 IDIUse=1 WtCom= 1.00D+00 WtEn= 0.00D+00
 Coeff-Com: -0.104D-01 0.123D+00 0.103D+00 0.785D+00
 Coeff:     -0.104D-01 0.123D+00 0.103D+00 0.785D+00
 Gap=     0.199 Goal=   None    Shift=    0.000
 RMSDP=1.92D-06 MaxDP=1.65D-05 DE=-1.70D-05 OVMax= 3.96D-05

 Cycle   5  Pass 1  IDiag  1:
 E= -559.991831553124     Delta-E=       -0.000000022455 Rises=F Damp=F
 DIIS: error= 1.99D-06 at cycle   5 NSaved=   5.
 NSaved= 5 IEnMin= 5 EnMin= -559.991831553124     IErMin= 5 ErrMin= 1.99D-06
 ErrMax= 1.99D-06  0.00D+00 EMaxC= 1.00D-01 BMatC= 2.61D-10 BMatP= 3.82D-08
 IDIUse=1 WtCom= 1.00D+00 WtEn= 0.00D+00
 Coeff-Com: -0.915D-03 0.586D-02 0.446D-02 0.809D-01 0.910D+00
 Coeff:     -0.915D-03 0.586D-02 0.446D-02 0.809D-01 0.910D+00
 Gap=     0.199 Goal=   None    Shift=    0.000
 RMSDP=5.38D-07 MaxDP=8.48D-06 DE=-2.25D-08 OVMax= 1.35D-05

 Cycle   6  Pass 1  IDiag  1:
 E= -559.991831553331     Delta-E=       -0.000000000207 Rises=F Damp=F
 DIIS: error= 1.10D-06 at cycle   6 NSaved=   6.
 NSaved= 6 IEnMin= 6 EnMin= -559.991831553331     IErMin= 6 ErrMin= 1.10D-06
 ErrMax= 1.10D-06  0.00D+00 EMaxC= 1.00D-01 BMatC= 9.82D-11 BMatP= 2.61D-10
 IDIUse=1 WtCom= 1.00D+00 WtEn= 0.00D+00
 Coeff-Com:  0.708D-04-0.325D-02-0.201D-02-0.534D-02 0.338D+00 0.673D+00
 Coeff:      0.708D-04-0.325D-02-0.201D-02-0.534D-02 0.338D+00 0.673D+00
 Gap=     0.199 Goal=   None    Shift=    0.000
 RMSDP=2.08D-07 MaxDP=3.92D-06 DE=-2.07D-10 OVMax= 3.88D-06

 Cycle   7  Pass 1  IDiag  1:
 E= -559.991831553434     Delta-E=       -0.000000000104 Rises=F Damp=F
 DIIS: error= 6.20D-08 at cycle   7 NSaved=   7.
 NSaved= 7 IEnMin= 7 EnMin= -559.991831553434     IErMin= 7 ErrMin= 6.20D-08
 ErrMax= 6.20D-08  0.00D+00 EMaxC= 1.00D-01 BMatC= 3.48D-13 BMatP= 9.82D-11
 IDIUse=1 WtCom= 1.00D+00 WtEn= 0.00D+00
 Coeff-Com:  0.187D-04-0.249D-03-0.586D-04-0.183D-02 0.590D-02 0.358D-01
 Coeff-Com:  0.960D+00
 Coeff:      0.187D-04-0.249D-03-0.586D-04-0.183D-02 0.590D-02 0.358D-01
 Coeff:      0.960D+00
 Gap=     0.199 Goal=   None    Shift=    0.000
 RMSDP=1.05D-08 MaxDP=1.10D-07 DE=-1.04D-10 OVMax= 2.20D-07

 Cycle   8  Pass 1  IDiag  1:
 E= -559.991831553437     Delta-E=       -0.000000000002 Rises=F Damp=F
 DIIS: error= 2.36D-08 at cycle   8 NSaved=   8.
 NSaved= 8 IEnMin= 8 EnMin= -559.991831553437     IErMin= 8 ErrMin= 2.36D-08
 ErrMax= 2.36D-08  0.00D+00 EMaxC= 1.00D-01 BMatC= 2.96D-14 BMatP= 3.48D-13
 IDIUse=1 WtCom= 1.00D+00 WtEn= 0.00D+00
 Coeff-Com:  0.413D-05 0.121D-04 0.439D-04-0.690D-03-0.109D-01-0.109D-01
 Coeff-Com:  0.405D+00 0.618D+00
 Coeff:      0.413D-05 0.121D-04 0.439D-04-0.690D-03-0.109D-01-0.109D-01
 Coeff:      0.405D+00 0.618D+00
 Gap=     0.199 Goal=   None    Shift=    0.000
 RMSDP=2.87D-09 MaxDP=3.42D-08 DE=-2.27D-12 OVMax= 6.03D-08

 SCF Done:  E(RB3LYP) =  -559.991831553     A.U. after    8 cycles
            NFock=  8  Conv=0.29D-08     -V/T= 2.0028
 KE= 5.584528957806D+02 PE=-1.428592868514D+03 EE= 2.617790352728D+02
 Leave Link  502 at Thu Oct  1 12:04:46 2015, MaxMem=    33554432 cpu:         2.4
 (Enter /group/hpc-share/gaussian/2009D/g09/l701.exe)
 Compute integral first derivatives.
 ... and contract with generalized density number  0.
 Leave Link  701 at Thu Oct  1 12:04:46 2015, MaxMem=    33554432 cpu:         1.1
 (Enter /group/hpc-share/gaussian/2009D/g09/l702.exe)
 L702 exits ... SP integral derivatives will be done elsewhere.
 Leave Link  702 at Thu Oct  1 12:04:46 2015, MaxMem=    33554432 cpu:         0.1
 (Enter /group/hpc-share/gaussian/2009D/g09/l703.exe)
 Compute integral first derivatives, UseDBF=F ICtDFT=           0.
 Integral derivatives from FoFJK, PRISM(SPDF).
 Calling FoFJK, ICntrl=      2127 FMM=F ISym2X=1 I1Cent= 0 IOpClX= 0 NMat=1 NMatS=1 NMatT=0.
 FoFJK:  IHMeth= 1 ICntrl=    2127 DoSepK=F KAlg= 0 I1Cent=   0 FoldK=F
 IRaf=         0 NMat=   1 IRICut=       1 DoRegI=T DoRafI=F ISym2E= 1.
 FoFCou: FMM=F IPFlag=           0 FMFlag=      100000 FMFlg1=         800
         NFxFlg=           0 DoJE=F BraDBF=F KetDBF=F FulRan=T
         wScrn=  0.000000 ICntrl=    2127 IOpCl=  0 I1Cent=           0 NGrid=           0
         NMat0=    1 NMatS0=      1 NMatT0=    0 NMatD0=    1 NMtDS0=    0 NMtDT0=    0
 Petite list used in FoFCou.
 Leave Link  703 at Thu Oct  1 12:04:46 2015, MaxMem=    33554432 cpu:         1.8
 (Enter /group/hpc-share/gaussian/2009D/g09/l716.exe)
 Dipole        = 0.00000000D+00 0.00000000D+00 3.91378889D-01
 ***** Axes restored to original set *****
 -------------------------------------------------------------------
 Center     Atomic                   Forces (Hartrees/Bohr)
 Number     Number              X              Y              Z
 -------------------------------------------------------------------
      1       17           0.000000000    0.000000000    0.000018442
      2        9           0.000000000    0.000000000   -0.000018442
 -------------------------------------------------------------------
 Cartesian Forces:  Max     0.000018442 RMS     0.000010648
 Leave Link  716 at Thu Oct  1 12:04:46 2015, MaxMem=    33554432 cpu:         0.1
 (Enter /group/hpc-share/gaussian/2009D/g09/l103.exe)

 GradGradGradGradGradGradGradGradGradGradGradGradGradGradGradGradGradGrad
 Berny optimization.
 Using GEDIIS/GDIIS optimizer.
 Red2BG is reusing G-inverse.
 Internal  Forces:  Max     0.000018442 RMS     0.000018442
 Search for a local minimum.
 Step number   3 out of a maximum of   20
 All quantities printed in internal units (Hartrees-Bohrs-Radians)
 RMS Force = .18442D-04 SwitMx=.10000D-02 MixMth= 2
 Mixed Optimization -- En-DIIS/RFO-DIIS
 Update second derivatives using D2CorX and points    2    3
 DE= -1.03D-04 DEPred=-9.12D-05 R= 1.13D+00
 TightC=F SS=  1.41D+00  RLast= 2.66D-02 DXNew= 5.0454D-01 7.9918D-02
 Trust test= 1.13D+00 RLast= 2.66D-02 DXMaxT set to 3.00D-01
 The second derivative matrix:
                          R1
           R1           0.29549
 ITU=  1  1
 Use linear search instead of GDIIS.
     Eigenvalues ---    0.29549
 RFO step:  Lambda= 0.00000000D+00 EMin= 2.95487362D-01
 Quartic linear search produced a step of -0.00243.
 Iteration  1 RMS(Cart)=  0.00004578 RMS(Int)=  0.00000000
 Iteration  2 RMS(Cart)=  0.00000000 RMS(Int)=  0.00000000
 ITry= 1 IFail=0 DXMaxC= 3.24D-05 DCOld= 1.00D+10 DXMaxT= 3.00D-01 DXLimC= 3.00D+00 Rises=F
 ClnCor:  largest displacement from symmetrization is 0.00D+00 for atom     0.
 Variable       Old X    -DE/DX   Delta X   Delta X   Delta X     New X
                                 (Linear)    (Quad)   (Total)
    R1        3.16318  -0.00002  -0.00006   0.00000  -0.00006   3.16311
         Item               Value     Threshold  Converged?
 Maximum Force            0.000018     0.000450     YES
 RMS     Force            0.000018     0.000300     YES
 Maximum Displacement     0.000032     0.001800     YES
 RMS     Displacement     0.000046     0.001200     YES
 Predicted change in Energy=-5.747105D-10
 Optimization completed.
    -- Stationary point found.
                           ----------------------------
                           !   Optimized Parameters   !
                           ! (Angstroms and Degrees)  !
 --------------------------                            --------------------------
 ! Name  Definition              Value          Derivative Info.                !
 --------------------------------------------------------------------------------
 ! R1    R(1,2)                  1.6739         -DE/DX =    0.0                 !
 --------------------------------------------------------------------------------
 Lowest energy point so far.  Saving SCF results.
 GradGradGradGradGradGradGradGradGradGradGradGradGradGradGradGradGradGrad

 Largest change from initial coordinates is atom    2       0.030 Angstoms.
 Leave Link  103 at Thu Oct  1 12:04:46 2015, MaxMem=    33554432 cpu:         0.0
 (Enter /group/hpc-share/gaussian/2009D/g09/l202.exe)
                          Input orientation:                          
 ---------------------------------------------------------------------
 Center     Atomic      Atomic             Coordinates (Angstroms)
 Number     Number       Type             X           Y           Z
 ---------------------------------------------------------------------
      1         17           0        0.000000    0.000000   -0.022940
      2          9           0        0.000000    0.000000    1.650940
 ---------------------------------------------------------------------
 Stoichiometry    ClF
 Framework group  C*V[C*(FCl)]
 Deg. of freedom     1
 Full point group                 C*V     NOp   4
 RotChk:  IX=0 Diff= 0.00D+00
 Largest Abelian subgroup         C2V     NOp   4
 Largest concise Abelian subgroup C1      NOp   1
                         Standard orientation:                         
 ---------------------------------------------------------------------
 Center     Atomic      Atomic             Coordinates (Angstroms)
 Number     Number       Type             X           Y           Z
 ---------------------------------------------------------------------
      1         17           0        0.000000    0.000000    0.579420
      2          9           0        0.000000    0.000000   -1.094460
 ---------------------------------------------------------------------
 Rotational constants (GHZ):      0.0000000     14.6521057     14.6521057
 Leave Link  202 at Thu Oct  1 12:04:46 2015, MaxMem=    33554432 cpu:         0.0
 (Enter /group/hpc-share/gaussian/2009D/g09/l601.exe)
 Copying SCF densities to generalized density rwf, IOpCl= 0 IROHF=0.

 **********************************************************************

            Population analysis using the SCF density.

 **********************************************************************

 Orbital symmetries:
       Occupied  (SG) (SG) (SG) (SG) (PI) (PI) (SG) (SG) (SG) (PI)
                 (PI) (PI) (PI)
       Virtual   (SG) (SG) (PI) (PI) (SG) (SG) (PI) (PI) (DLTA)
                 (DLTA) (SG) (PI) (PI) (SG) (PI) (PI) (SG) (SG)
                 (DLTA) (DLTA) (PI) (PI) (SG) (DLTA) (DLTA) (PI)
                 (PI) (SG) (PI) (PI) (SG) (SG) (DLTA) (DLTA) (PI)
                 (PI) (SG)
 The electronic state is 1-SG.
 Alpha  occ. eigenvalues -- -101.64341 -24.77118  -9.55370  -7.32298  -7.30371
 Alpha  occ. eigenvalues --   -7.30371  -1.24316  -0.84862  -0.54217  -0.48915
 Alpha  occ. eigenvalues --   -0.48915  -0.34453  -0.34453
 Alpha virt. eigenvalues --   -0.14602   0.03700   0.06831   0.06831   0.06999
 Alpha virt. eigenvalues --    0.16408   0.18837   0.18837   0.28904   0.28905
 Alpha virt. eigenvalues --    0.33917   0.35463   0.35463   0.45790   0.66592
 Alpha virt. eigenvalues --    0.66592   0.71774   1.02307   1.06815   1.06854
 Alpha virt. eigenvalues --    1.07565   1.07565   1.09032   1.13886   1.13898
 Alpha virt. eigenvalues --    1.28500   1.28500   1.38365   1.42694   1.42694
 Alpha virt. eigenvalues --    1.83791   2.54958   4.38096   4.38096   4.47790
 Alpha virt. eigenvalues --    4.47790   4.57019
          Condensed to atoms (all electrons):
               1          2
     1  Cl  16.684378  -0.049593
     2  F   -0.049593   9.414807
 Mulliken charges:
               1
     1  Cl   0.365214
     2  F   -0.365214
 Sum of Mulliken charges =   0.00000
 Mulliken charges with hydrogens summed into heavy atoms:
               1
     1  Cl   0.365214
     2  F   -0.365214
 Electronic spatial extent (au):  <R**2>=             97.1392
 Charge=              0.0000 electrons
 Dipole moment (field-independent basis, Debye):
    X=              0.0000    Y=              0.0000    Z=              0.9948  Tot=              0.9948
 Quadrupole moment (field-independent basis, Debye-Ang):
   XX=            -17.6190   YY=            -17.6190   ZZ=            -16.2225
   XY=              0.0000   XZ=              0.0000   YZ=              0.0000
 Traceless Quadrupole moment (field-independent basis, Debye-Ang):
   XX=             -0.4655   YY=             -0.4655   ZZ=              0.9310
   XY=              0.0000   XZ=              0.0000   YZ=              0.0000
 Octapole moment (field-independent basis, Debye-Ang**2):
  XXX=              0.0000  YYY=              0.0000  ZZZ=             -1.9391  XYY=              0.0000
  XXY=              0.0000  XXZ=             -2.1741  XZZ=              0.0000  YZZ=              0.0000
  YYZ=             -2.1741  XYZ=              0.0000
 Hexadecapole moment (field-independent basis, Debye-Ang**3):
 XXXX=            -17.9769 YYYY=            -17.9769 ZZZZ=            -67.9792 XXXY=              0.0000
 XXXZ=              0.0000 YYYX=              0.0000 YYYZ=              0.0000 ZZZX=              0.0000
 ZZZY=              0.0000 XXYY=             -5.9923 XXZZ=            -16.0241 YYZZ=            -16.0241
 XXYZ=              0.0000 YYXZ=              0.0000 ZZXY=              0.0000
 N-N= 4.836910590672D+01 E-N=-1.428592867132D+03  KE= 5.584528957806D+02
 Symmetry A1   KE= 4.534572108794D+02
 Symmetry A2   KE=-8.327342192029D-56
 Symmetry B1   KE= 5.249784245063D+01
 Symmetry B2   KE= 5.249784245063D+01
 No NMR shielding tensors so no spin-rotation constants.
 Leave Link  601 at Thu Oct  1 12:04:47 2015, MaxMem=    33554432 cpu:         1.5
 (Enter /group/hpc-share/gaussian/2009D/g09/l9999.exe)
 B after Tr=     0.000000    0.000000    0.013339
         Rot=    1.000000    0.000000    0.000000    0.000000 Ang=   0.00 deg.
 Final structure in terms of initial Z-matrix:
 Cl
 F,1,fcl2
      Variables:
 fcl2=1.6738807
 1\1\GINC-HPC-CN121\FOpt\RB3LYP\Aug-CC-pVDZ\Cl1F1\6498IVANOVM\01-Oct-20
 15\0\\#P b3lyp/aug-cc-pvdz opt\\ClF\\0,1\Cl,0.,0.,-0.0229403506\F,0.,0
 .,1.6509403506\\Version=EM64L-G09RevD.01\State=1-SG\HF=-559.9918316\RM
 SD=2.869e-09\RMSF=1.065e-05\Dipole=0.,0.,-0.3913789\Quadrupole=-0.3460
 945,-0.3460945,0.6921891,0.,0.,0.\PG=C*V [C*(F1Cl1)]\\@


 THERE IS NOTHING NOBLE IN BEING SUPERIOR TO SOME OTHER MAN.
 TRUE NOBILITY IS BEING SUPERIOR TO YOUR FORMER SELF.

                                                   -- HINDU PROVERB
 Job cpu time:       0 days  0 hours  0 minutes 39.0 seconds.
 File lengths (MBytes):  RWF=      5 Int=      0 D2E=      0 Chk=      1 Scr=      1
 Normal termination of Gaussian 09 at Thu Oct  1 12:04:47 2015.
