 Entering Gaussian System, Link 0=g09
 Input=formaldehyde.com
 Output=formaldehyde.log
 AtFile(1): formaldehyde.zmat
             c
             o   1 oc2
             h    1 hc3         2 hco3
             h    1 hc4         2 hco4          3 dih4
            variables
            oc2         1.220000
            hc3         1.089000
            hco3        120.000
            hc4         1.089000
            hco4        120.000
            dih4        180.000
 Initial command:
 /group/hpc-share/gaussian/2009D/g09/l1.exe "/scratch/gaussian/g_formaldehyde.com-809487.hn1.marqnet.mu.edu/Gau-8523.inp" -scrdir="/scratch/gaussian/g_formaldehyde.com-809487.hn1.marqnet.mu.edu/"
 Entering Link 1 = /group/hpc-share/gaussian/2009D/g09/l1.exe PID=      8524.
  
 Copyright (c) 1988,1990,1992,1993,1995,1998,2003,2009,2013,
            Gaussian, Inc.  All Rights Reserved.
  
 This is part of the Gaussian(R) 09 program.  It is based on
 the Gaussian(R) 03 system (copyright 2003, Gaussian, Inc.),
 the Gaussian(R) 98 system (copyright 1998, Gaussian, Inc.),
 the Gaussian(R) 94 system (copyright 1995, Gaussian, Inc.),
 the Gaussian 92(TM) system (copyright 1992, Gaussian, Inc.),
 the Gaussian 90(TM) system (copyright 1990, Gaussian, Inc.),
 the Gaussian 88(TM) system (copyright 1988, Gaussian, Inc.),
 the Gaussian 86(TM) system (copyright 1986, Carnegie Mellon
 University), and the Gaussian 82(TM) system (copyright 1983,
 Carnegie Mellon University). Gaussian is a federally registered
 trademark of Gaussian, Inc.
  
 This software contains proprietary and confidential information,
 including trade secrets, belonging to Gaussian, Inc.
  
 This software is provided under written license and may be
 used, copied, transmitted, or stored only in accord with that
 written license.
  
 The following legend is applicable only to US Government
 contracts under FAR:
  
                    RESTRICTED RIGHTS LEGEND
  
 Use, reproduction and disclosure by the US Government is
 subject to restrictions as set forth in subparagraphs (a)
 and (c) of the Commercial Computer Software - Restricted
 Rights clause in FAR 52.227-19.
  
 Gaussian, Inc.
 340 Quinnipiac St., Bldg. 40, Wallingford CT 06492
  
  
 ---------------------------------------------------------------
 Warning -- This program may not be used in any manner that
 competes with the business of Gaussian, Inc. or will provide
 assistance to any competitor of Gaussian, Inc.  The licensee
 of this program is prohibited from giving any competitor of
 Gaussian, Inc. access to this program.  By using this program,
 the user acknowledges that Gaussian, Inc. is engaged in the
 business of creating and licensing software in the field of
 computational chemistry and represents and warrants to the
 licensee that it is not a competitor of Gaussian, Inc. and that
 it will not use this program in any manner prohibited above.
 ---------------------------------------------------------------
  

 Cite this work as:
 Gaussian 09, Revision D.01,
 M. J. Frisch, G. W. Trucks, H. B. Schlegel, G. E. Scuseria, 
 M. A. Robb, J. R. Cheeseman, G. Scalmani, V. Barone, B. Mennucci, 
 G. A. Petersson, H. Nakatsuji, M. Caricato, X. Li, H. P. Hratchian, 
 A. F. Izmaylov, J. Bloino, G. Zheng, J. L. Sonnenberg, M. Hada, 
 M. Ehara, K. Toyota, R. Fukuda, J. Hasegawa, M. Ishida, T. Nakajima, 
 Y. Honda, O. Kitao, H. Nakai, T. Vreven, J. A. Montgomery, Jr., 
 J. E. Peralta, F. Ogliaro, M. Bearpark, J. J. Heyd, E. Brothers, 
 K. N. Kudin, V. N. Staroverov, T. Keith, R. Kobayashi, J. Normand, 
 K. Raghavachari, A. Rendell, J. C. Burant, S. S. Iyengar, J. Tomasi, 
 M. Cossi, N. Rega, J. M. Millam, M. Klene, J. E. Knox, J. B. Cross, 
 V. Bakken, C. Adamo, J. Jaramillo, R. Gomperts, R. E. Stratmann, 
 O. Yazyev, A. J. Austin, R. Cammi, C. Pomelli, J. W. Ochterski, 
 R. L. Martin, K. Morokuma, V. G. Zakrzewski, G. A. Voth, 
 P. Salvador, J. J. Dannenberg, S. Dapprich, A. D. Daniels, 
 O. Farkas, J. B. Foresman, J. V. Ortiz, J. Cioslowski, 
 and D. J. Fox, Gaussian, Inc., Wallingford CT, 2013.
 
 ******************************************
 Gaussian 09:  EM64L-G09RevD.01 24-Apr-2013
                 2-Sep-2015 
 ******************************************
 %nproc=8
 Will use up to    8 processors via shared memory.
 %chk=formaldehyde.chk
 ------------------------
 #P b3lyp/aug-cc-pvdz opt
 ------------------------
 1/14=-1,18=20,19=15,26=3,38=1/1,3;
 2/9=110,12=2,17=6,18=5,40=1/2;
 3/5=16,7=10,11=2,16=1,25=1,30=1,71=1,74=-5/1,2,3;
 4//1;
 5/5=2,38=5/2;
 6/7=2,8=2,9=2,10=2,28=1/1;
 7//1,2,3,16;
 1/14=-1,18=20,19=15,26=3/3(2);
 2/9=110/2;
 99//99;
 2/9=110/2;
 3/5=16,7=10,11=2,16=1,25=1,30=1,71=1,74=-5/1,2,3;
 4/5=5,16=3,69=1/1;
 5/5=2,38=5/2;
 7//1,2,3,16;
 1/14=-1,18=20,19=15,26=3/3(-5);
 2/9=110/2;
 6/7=2,8=2,9=2,10=2,19=2,28=1/1;
 99/9=1/99;
 Leave Link    1 at Wed Sep  2 15:14:22 2015, MaxMem=           0 cpu:         0.5
 (Enter /group/hpc-share/gaussian/2009D/g09/l101.exe)
 ------------
 formaldehyde
 ------------
 Symbolic Z-matrix:
 Charge =  0 Multiplicity = 1
 c
 o                    1    oc2
 h                    1    hc3      2    hco3
 h                    1    hc4      2    hco4     3    dih4     0
       Variables:
  oc2                   1.22                     
  hc3                   1.089                    
  hco3                120.                       
  hc4                   1.089                    
  hco4                120.                       
  dih4                180.                       
 
 NAtoms=      4 NQM=        4 NQMF=       0 NMMI=      0 NMMIF=      0
                NMic=       0 NMicF=      0.
                    Isotopes and Nuclear Properties:
 (Nuclear quadrupole moments (NQMom) in fm**2, nuclear magnetic moments (NMagM)
  in nuclear magnetons)

  Atom         1           2           3           4
 IAtWgt=          12          16           1           1
 AtmWgt=  12.0000000  15.9949146   1.0078250   1.0078250
 NucSpn=           0           0           1           1
 AtZEff=   0.0000000   0.0000000   0.0000000   0.0000000
 NQMom=    0.0000000   0.0000000   0.0000000   0.0000000
 NMagM=    0.0000000   0.0000000   2.7928460   2.7928460
 AtZNuc=   6.0000000   8.0000000   1.0000000   1.0000000
 Leave Link  101 at Wed Sep  2 15:14:22 2015, MaxMem=    33554432 cpu:         1.0
 (Enter /group/hpc-share/gaussian/2009D/g09/l103.exe)

 GradGradGradGradGradGradGradGradGradGradGradGradGradGradGradGradGradGrad
 Berny optimization.
 Initialization pass.
                           ----------------------------
                           !    Initial Parameters    !
                           ! (Angstroms and Degrees)  !
 --------------------------                            --------------------------
 ! Name  Definition              Value          Derivative Info.                !
 --------------------------------------------------------------------------------
 ! R1    R(1,2)                  1.22           estimate D2E/DX2                !
 ! R2    R(1,3)                  1.089          estimate D2E/DX2                !
 ! R3    R(1,4)                  1.089          estimate D2E/DX2                !
 ! A1    A(2,1,3)              120.0            estimate D2E/DX2                !
 ! A2    A(2,1,4)              120.0            estimate D2E/DX2                !
 ! A3    A(3,1,4)              120.0            estimate D2E/DX2                !
 ! D1    D(2,1,4,3)            180.0            estimate D2E/DX2                !
 --------------------------------------------------------------------------------
 Trust Radius=3.00D-01 FncErr=1.00D-07 GrdErr=1.00D-06
 Number of steps in this run=     20 maximum allowed number of steps=    100.
 GradGradGradGradGradGradGradGradGradGradGradGradGradGradGradGradGradGrad

 Leave Link  103 at Wed Sep  2 15:14:22 2015, MaxMem=    33554432 cpu:         0.1
 (Enter /group/hpc-share/gaussian/2009D/g09/l202.exe)
                          Input orientation:                          
 ---------------------------------------------------------------------
 Center     Atomic      Atomic             Coordinates (Angstroms)
 Number     Number       Type             X           Y           Z
 ---------------------------------------------------------------------
      1          6           0        0.000000    0.000000    0.000000
      2          8           0        0.000000    0.000000    1.220000
      3          1           0        0.943102    0.000000   -0.544500
      4          1           0       -0.943102    0.000000   -0.544500
 ---------------------------------------------------------------------
                    Distance matrix (angstroms):
                    1          2          3          4
     1  C    0.000000
     2  O    1.220000   0.000000
     3  H    1.089000   2.000725   0.000000
     4  H    1.089000   2.000725   1.886203   0.000000
 Stoichiometry    CH2O
 Framework group  C2V[C2(CO),SGV(H2)]
 Deg. of freedom     3
 Full point group                 C2V     NOp   4
 Largest Abelian subgroup         C2V     NOp   4
 Largest concise Abelian subgroup C2      NOp   2
                         Standard orientation:                         
 ---------------------------------------------------------------------
 Center     Atomic      Atomic             Coordinates (Angstroms)
 Number     Number       Type             X           Y           Z
 ---------------------------------------------------------------------
      1          6           0        0.000000    0.000000   -0.541938
      2          8           0        0.000000    0.000000    0.678063
      3          1           0        0.000000    0.943102   -1.086438
      4          1           0        0.000000   -0.943102   -1.086438
 ---------------------------------------------------------------------
 Rotational constants (GHZ):    281.8934821     38.5694058     33.9273735
 Leave Link  202 at Wed Sep  2 15:14:22 2015, MaxMem=    33554432 cpu:         0.0
 (Enter /group/hpc-share/gaussian/2009D/g09/l301.exe)
 Standard basis: Aug-CC-pVDZ (5D, 7F)
 Ernie: Thresh=  0.10000D-02 Tol=  0.10000D-05 Strict=F.
 Ernie:  4 primitive shells out of 64 were deleted.
 There are    33 symmetry adapted cartesian basis functions of A1  symmetry.
 There are     6 symmetry adapted cartesian basis functions of A2  symmetry.
 There are    12 symmetry adapted cartesian basis functions of B1  symmetry.
 There are    17 symmetry adapted cartesian basis functions of B2  symmetry.
 There are    29 symmetry adapted basis functions of A1  symmetry.
 There are     6 symmetry adapted basis functions of A2  symmetry.
 There are    12 symmetry adapted basis functions of B1  symmetry.
 There are    17 symmetry adapted basis functions of B2  symmetry.
    64 basis functions,   108 primitive gaussians,    68 cartesian basis functions
     8 alpha electrons        8 beta electrons
       nuclear repulsion energy        31.1636755878 Hartrees.
 IExCor=  402 DFT=T Ex+Corr=B3LYP ExCW=0 ScaHFX=  0.200000
 ScaDFX=  0.800000  0.720000  1.000000  0.810000 ScalE2=  1.000000  1.000000
 IRadAn=      0 IRanWt=     -1 IRanGd=            0 ICorTp=0 IEmpDi=  4
 NAtoms=    4 NActive=    4 NUniq=    3 SFac= 1.78D+00 NAtFMM=   60 NAOKFM=F Big=F
 Integral buffers will be    131072 words long.
 Raffenetti 2 integral format.
 Two-electron integral symmetry is turned on.
 Leave Link  301 at Wed Sep  2 15:14:23 2015, MaxMem=    33554432 cpu:         0.4
 (Enter /group/hpc-share/gaussian/2009D/g09/l302.exe)
 NPDir=0 NMtPBC=     1 NCelOv=     1 NCel=       1 NClECP=     1 NCelD=      1
         NCelK=      1 NCelE2=     1 NClLst=     1 CellRange=     0.0.
 One-electron integrals computed using PRISM.
 One-electron integral symmetry used in STVInt
 NBasis=    64 RedAO= T EigKep=  8.52D-04  NBF=    29     6    12    17
 NBsUse=    64 1.00D-06 EigRej= -1.00D+00 NBFU=    29     6    12    17
 Precomputing XC quadrature grid using
 IXCGrd= 4 IRadAn=           0 IRanWt=          -1 IRanGd=           0 AccXCQ= 0.00D+00.
 Generated NRdTot=       0 NPtTot=           0 NUsed=           0 NTot=          32
 NSgBfM=    68    68    68    68    68 MxSgAt=     4 MxSgA2=     4.
 Leave Link  302 at Wed Sep  2 15:14:23 2015, MaxMem=    33554432 cpu:         1.7
 (Enter /group/hpc-share/gaussian/2009D/g09/l303.exe)
 DipDrv:  MaxL=1.
 Leave Link  303 at Wed Sep  2 15:14:23 2015, MaxMem=    33554432 cpu:         0.2
 (Enter /group/hpc-share/gaussian/2009D/g09/l401.exe)
 ExpMin= 2.97D-02 ExpMax= 1.17D+04 ExpMxC= 4.01D+02 IAcc=3 IRadAn=         5 AccDes= 0.00D+00
 Harris functional with IExCor=  402 and IRadAn=       5 diagonalized for initial guess.
 HarFok:  IExCor=  402 AccDes= 0.00D+00 IRadAn=         5 IDoV= 1 UseB2=F ITyADJ=14
 ICtDFT=  3500011 ScaDFX=  1.000000  1.000000  1.000000  1.000000
 FoFCou: FMM=F IPFlag=           0 FMFlag=      100000 FMFlg1=           0
         NFxFlg=           0 DoJE=T BraDBF=F KetDBF=T FulRan=T
         wScrn=  0.000000 ICntrl=     500 IOpCl=  0 I1Cent=   200000004 NGrid=           0
         NMat0=    1 NMatS0=      1 NMatT0=    0 NMatD0=    1 NMtDS0=    0 NMtDT0=    0
 Petite list used in FoFCou.
 Harris En= -114.524067499398    
 JPrj=0 DoOrth=F DoCkMO=F.
 Initial guess orbital symmetries:
       Occupied  (A1) (A1) (A1) (A1) (B2) (A1) (B1) (B2)
       Virtual   (B1) (A1) (B2) (A1) (B1) (A1) (B2) (A1) (A1) (B2)
                 (B1) (A1) (A2) (B2) (A1) (B1) (B2) (A1) (A1) (A1)
                 (B2) (A2) (B1) (B2) (A1) (B1) (A1) (B2) (A1) (B1)
                 (B2) (A2) (A1) (A1) (B2) (A2) (B1) (A1) (B2) (B1)
                 (A1) (B2) (A1) (B1) (A1) (A2) (B2) (A1) (A1) (B2)
                 (A1) (A2) (A1) (B1) (B2) (A1)
 The electronic state of the initial guess is 1-A1.
 Leave Link  401 at Wed Sep  2 15:14:23 2015, MaxMem=    33554432 cpu:         1.4
 (Enter /group/hpc-share/gaussian/2009D/g09/l502.exe)
 Closed shell SCF:
 Using DIIS extrapolation, IDIIS=  1040.
 Integral symmetry usage will be decided dynamically.
 Keep R1 ints in memory in symmetry-blocked form, NReq=3093648.
 IVT=       33634 IEndB=       33634 NGot=    33554432 MDV=    32945358
 LenX=    32945358 LenY=    32940293
 Requested convergence on RMS density matrix=1.00D-08 within 128 cycles.
 Requested convergence on MAX density matrix=1.00D-06.
 Requested convergence on             energy=1.00D-06.
 No special actions if energy rises.
 FoFCou: FMM=F IPFlag=           0 FMFlag=           0 FMFlg1=           0
         NFxFlg=           0 DoJE=F BraDBF=F KetDBF=F FulRan=T
         wScrn=  0.000000 ICntrl=     600 IOpCl=  0 I1Cent=           0 NGrid=           0
         NMat0=    1 NMatS0=   2080 NMatT0=    0 NMatD0=    1 NMtDS0=    0 NMtDT0=    0
 Petite list used in FoFCou.

 Cycle   1  Pass 1  IDiag  1:
 E= -114.471759273657    
 DIIS: error= 3.61D-02 at cycle   1 NSaved=   1.
 NSaved= 1 IEnMin= 1 EnMin= -114.471759273657     IErMin= 1 ErrMin= 3.61D-02
 ErrMax= 3.61D-02  0.00D+00 EMaxC= 1.00D-01 BMatC= 5.64D-02 BMatP= 5.64D-02
 IDIUse=3 WtCom= 6.39D-01 WtEn= 3.61D-01
 Coeff-Com:  0.100D+01
 Coeff-En:   0.100D+01
 Coeff:      0.100D+01
 Gap=     0.159 Goal=   None    Shift=    0.000
 GapD=    0.159 DampG=1.000 DampE=0.500 DampFc=0.5000 IDamp=-1.
 Damping current iteration by 5.00D-01
 RMSDP=7.59D-03 MaxDP=1.69D-01              OVMax= 2.73D-01

 Cycle   2  Pass 1  IDiag  1:
 E= -114.466914860120     Delta-E=        0.004844413537 Rises=F Damp=T
 DIIS: error= 2.22D-02 at cycle   2 NSaved=   2.
 NSaved= 2 IEnMin= 1 EnMin= -114.471759273657     IErMin= 2 ErrMin= 2.22D-02
 ErrMax= 2.22D-02  0.00D+00 EMaxC= 1.00D-01 BMatC= 2.19D-02 BMatP= 5.64D-02
 IDIUse=3 WtCom= 7.78D-01 WtEn= 2.22D-01
 Coeff-Com:  0.368D+00 0.632D+00
 Coeff-En:   0.534D+00 0.466D+00
 Coeff:      0.404D+00 0.596D+00
 Gap=     0.210 Goal=   None    Shift=    0.000
 RMSDP=3.23D-03 MaxDP=4.05D-02 DE= 4.84D-03 OVMax= 1.99D-01

 Cycle   3  Pass 1  IDiag  1:
 E= -114.517479099624     Delta-E=       -0.050564239504 Rises=F Damp=F
 DIIS: error= 5.07D-03 at cycle   3 NSaved=   3.
 NSaved= 3 IEnMin= 3 EnMin= -114.517479099624     IErMin= 3 ErrMin= 5.07D-03
 ErrMax= 5.07D-03  0.00D+00 EMaxC= 1.00D-01 BMatC= 1.85D-03 BMatP= 2.19D-02
 IDIUse=3 WtCom= 9.49D-01 WtEn= 5.07D-02
 Coeff-Com:  0.135D+00 0.243D+00 0.623D+00
 Coeff-En:   0.000D+00 0.000D+00 0.100D+01
 Coeff:      0.128D+00 0.230D+00 0.642D+00
 Gap=     0.210 Goal=   None    Shift=    0.000
 RMSDP=7.57D-04 MaxDP=1.46D-02 DE=-5.06D-02 OVMax= 2.07D-02

 Cycle   4  Pass 1  IDiag  1:
 E= -114.519264204358     Delta-E=       -0.001785104734 Rises=F Damp=F
 DIIS: error= 1.83D-03 at cycle   4 NSaved=   4.
 NSaved= 4 IEnMin= 4 EnMin= -114.519264204358     IErMin= 4 ErrMin= 1.83D-03
 ErrMax= 1.83D-03  0.00D+00 EMaxC= 1.00D-01 BMatC= 1.94D-04 BMatP= 1.85D-03
 IDIUse=3 WtCom= 9.82D-01 WtEn= 1.83D-02
 Coeff-Com:  0.139D-01 0.865D-02 0.245D+00 0.733D+00
 Coeff-En:   0.000D+00 0.000D+00 0.000D+00 0.100D+01
 Coeff:      0.136D-01 0.849D-02 0.240D+00 0.738D+00
 Gap=     0.212 Goal=   None    Shift=    0.000
 RMSDP=1.82D-04 MaxDP=4.07D-03 DE=-1.79D-03 OVMax= 4.26D-03

 Cycle   5  Pass 1  IDiag  1:
 E= -114.519446972956     Delta-E=       -0.000182768598 Rises=F Damp=F
 DIIS: error= 2.26D-04 at cycle   5 NSaved=   5.
 NSaved= 5 IEnMin= 5 EnMin= -114.519446972956     IErMin= 5 ErrMin= 2.26D-04
 ErrMax= 2.26D-04  0.00D+00 EMaxC= 1.00D-01 BMatC= 2.37D-06 BMatP= 1.94D-04
 IDIUse=3 WtCom= 9.98D-01 WtEn= 2.26D-03
 Coeff-Com:  0.199D-02-0.666D-02 0.428D-01 0.163D+00 0.799D+00
 Coeff-En:   0.000D+00 0.000D+00 0.000D+00 0.000D+00 0.100D+01
 Coeff:      0.199D-02-0.664D-02 0.427D-01 0.163D+00 0.799D+00
 Gap=     0.212 Goal=   None    Shift=    0.000
 RMSDP=2.07D-05 MaxDP=2.29D-04 DE=-1.83D-04 OVMax= 4.24D-04

 Cycle   6  Pass 1  IDiag  1:
 E= -114.519449043676     Delta-E=       -0.000002070720 Rises=F Damp=F
 DIIS: error= 3.28D-05 at cycle   6 NSaved=   6.
 NSaved= 6 IEnMin= 6 EnMin= -114.519449043676     IErMin= 6 ErrMin= 3.28D-05
 ErrMax= 3.28D-05  0.00D+00 EMaxC= 1.00D-01 BMatC= 4.30D-08 BMatP= 2.37D-06
 IDIUse=1 WtCom= 1.00D+00 WtEn= 0.00D+00
 Coeff-Com:  0.292D-03-0.107D-02 0.103D-03-0.543D-03 0.202D-01 0.981D+00
 Coeff:      0.292D-03-0.107D-02 0.103D-03-0.543D-03 0.202D-01 0.981D+00
 Gap=     0.212 Goal=   None    Shift=    0.000
 RMSDP=3.04D-06 MaxDP=4.46D-05 DE=-2.07D-06 OVMax= 7.04D-05

 Cycle   7  Pass 1  IDiag  1:
 E= -114.519449079896     Delta-E=       -0.000000036220 Rises=F Damp=F
 DIIS: error= 2.29D-06 at cycle   7 NSaved=   7.
 NSaved= 7 IEnMin= 7 EnMin= -114.519449079896     IErMin= 7 ErrMin= 2.29D-06
 ErrMax= 2.29D-06  0.00D+00 EMaxC= 1.00D-01 BMatC= 3.55D-10 BMatP= 4.30D-08
 IDIUse=1 WtCom= 1.00D+00 WtEn= 0.00D+00
 Coeff-Com:  0.156D-04 0.639D-05-0.395D-03-0.226D-02-0.128D-01 0.505D-01
 Coeff-Com:  0.965D+00
 Coeff:      0.156D-04 0.639D-05-0.395D-03-0.226D-02-0.128D-01 0.505D-01
 Coeff:      0.965D+00
 Gap=     0.212 Goal=   None    Shift=    0.000
 RMSDP=2.71D-07 MaxDP=4.08D-06 DE=-3.62D-08 OVMax= 4.85D-06

 Cycle   8  Pass 1  IDiag  1:
 E= -114.519449080165     Delta-E=       -0.000000000268 Rises=F Damp=F
 DIIS: error= 6.45D-07 at cycle   8 NSaved=   8.
 NSaved= 8 IEnMin= 8 EnMin= -114.519449080165     IErMin= 8 ErrMin= 6.45D-07
 ErrMax= 6.45D-07  0.00D+00 EMaxC= 1.00D-01 BMatC= 2.31D-11 BMatP= 3.55D-10
 IDIUse=1 WtCom= 1.00D+00 WtEn= 0.00D+00
 Coeff-Com:  0.519D-05-0.405D-06 0.345D-05-0.184D-03-0.109D-02-0.990D-02
 Coeff-Com:  0.822D-01 0.929D+00
 Coeff:      0.519D-05-0.405D-06 0.345D-05-0.184D-03-0.109D-02-0.990D-02
 Coeff:      0.822D-01 0.929D+00
 Gap=     0.212 Goal=   None    Shift=    0.000
 RMSDP=5.99D-08 MaxDP=6.53D-07 DE=-2.68D-10 OVMax= 1.51D-06

 Cycle   9  Pass 1  IDiag  1:
 E= -114.519449080186     Delta-E=       -0.000000000021 Rises=F Damp=F
 DIIS: error= 4.26D-08 at cycle   9 NSaved=   9.
 NSaved= 9 IEnMin= 9 EnMin= -114.519449080186     IErMin= 9 ErrMin= 4.26D-08
 ErrMax= 4.26D-08  0.00D+00 EMaxC= 1.00D-01 BMatC= 1.16D-13 BMatP= 2.31D-11
 IDIUse=1 WtCom= 1.00D+00 WtEn= 0.00D+00
 Coeff-Com:  0.495D-06-0.668D-06 0.767D-05 0.103D-04 0.116D-03-0.192D-02
 Coeff-Com: -0.650D-02 0.734D-01 0.935D+00
 Coeff:      0.495D-06-0.668D-06 0.767D-05 0.103D-04 0.116D-03-0.192D-02
 Coeff:     -0.650D-02 0.734D-01 0.935D+00
 Gap=     0.212 Goal=   None    Shift=    0.000
 RMSDP=4.90D-09 MaxDP=8.11D-08 DE=-2.08D-11 OVMax= 7.01D-08

 SCF Done:  E(RB3LYP) =  -114.519449080     A.U. after    9 cycles
            NFock=  9  Conv=0.49D-08     -V/T= 2.0063
 KE= 1.137975447855D+02 PE=-3.309384787907D+02 EE= 7.145780933721D+01
 Leave Link  502 at Wed Sep  2 15:14:24 2015, MaxMem=    33554432 cpu:         2.4
 (Enter /group/hpc-share/gaussian/2009D/g09/l601.exe)
 Copying SCF densities to generalized density rwf, IOpCl= 0 IROHF=0.

 **********************************************************************

            Population analysis using the SCF density.

 **********************************************************************

 Orbital symmetries:
       Occupied  (A1) (A1) (A1) (A1) (B2) (A1) (B1) (B2)
       Virtual   (B1) (A1) (B2) (A1) (B1) (A1) (B2) (A1) (A1) (B2)
                 (B1) (A1) (A2) (B2) (B1) (A1) (B2) (A1) (A1) (B2)
                 (A2) (B1) (A1) (B2) (A1) (B1) (A1) (B2) (A1) (B2)
                 (B1) (A2) (A1) (A1) (A2) (B2) (B1) (A1) (B2) (B1)
                 (A1) (B2) (A1) (B1) (A1) (A2) (B2) (A1) (A1) (B2)
                 (A1) (A2) (A1) (B1) (B2) (A1)
 The electronic state is 1-A1.
 Alpha  occ. eigenvalues --  -19.17413 -10.29303  -1.06698  -0.64925  -0.51138
 Alpha  occ. eigenvalues --   -0.45893  -0.40637  -0.28029
 Alpha virt. eigenvalues --   -0.06802  -0.00860   0.01849   0.03561   0.05882
 Alpha virt. eigenvalues --    0.10379   0.10583   0.13003   0.15276   0.17244
 Alpha virt. eigenvalues --    0.18161   0.21947   0.22673   0.25577   0.32938
 Alpha virt. eigenvalues --    0.34524   0.35896   0.39665   0.44104   0.44711
 Alpha virt. eigenvalues --    0.47308   0.47766   0.47920   0.52966   0.56605
 Alpha virt. eigenvalues --    0.65276   0.68587   0.81177   0.86242   0.99542
 Alpha virt. eigenvalues --    0.99570   1.00701   1.07989   1.16783   1.26461
 Alpha virt. eigenvalues --    1.27137   1.31689   1.39169   1.53703   1.55796
 Alpha virt. eigenvalues --    1.67441   1.67588   1.79339   1.86066   1.90975
 Alpha virt. eigenvalues --    1.97170   2.10482   2.23487   2.36371   2.62144
 Alpha virt. eigenvalues --    2.97041   3.29840   3.31583   3.34067   3.48327
 Alpha virt. eigenvalues --    3.61648
          Condensed to atoms (all electrons):
               1          2          3          4
     1  C    4.266430   0.322005   0.219189   0.219189
     2  O    0.322005   8.129973  -0.040164  -0.040164
     3  H    0.219189  -0.040164   1.434095  -0.312351
     4  H    0.219189  -0.040164  -0.312351   1.434095
 Mulliken charges:
               1
     1  C    0.973186
     2  O   -0.371649
     3  H   -0.300769
     4  H   -0.300769
 Sum of Mulliken charges =   0.00000
 Mulliken charges with hydrogens summed into heavy atoms:
               1
     1  C    0.371649
     2  O   -0.371649
 Electronic spatial extent (au):  <R**2>=             60.8806
 Charge=              0.0000 electrons
 Dipole moment (field-independent basis, Debye):
    X=              0.0000    Y=              0.0000    Z=             -2.4874  Tot=              2.4874
 Quadrupole moment (field-independent basis, Debye-Ang):
   XX=            -11.7673   YY=            -11.6056   ZZ=            -12.4994
   XY=              0.0000   XZ=              0.0000   YZ=              0.0000
 Traceless Quadrupole moment (field-independent basis, Debye-Ang):
   XX=              0.1901   YY=              0.3519   ZZ=             -0.5420
   XY=              0.0000   XZ=              0.0000   YZ=              0.0000
 Octapole moment (field-independent basis, Debye-Ang**2):
  XXX=              0.0000  YYY=              0.0000  ZZZ=              0.5475  XYY=              0.0000
  XXY=              0.0000  XXZ=              0.5713  XZZ=              0.0000  YZZ=              0.0000
  YYZ=             -0.7149  XYZ=              0.0000
 Hexadecapole moment (field-independent basis, Debye-Ang**3):
 XXXX=            -10.9031 YYYY=            -18.7835 ZZZZ=            -47.8928 XXXY=              0.0000
 XXXZ=              0.0000 YYYX=              0.0000 YYYZ=              0.0000 ZZZX=              0.0000
 ZZZY=              0.0000 XXYY=             -5.2867 XXZZ=             -9.6605 YYZZ=            -10.8892
 XXYZ=              0.0000 YYXZ=              0.0000 ZZXY=              0.0000
 N-N= 3.116367558783D+01 E-N=-3.309384785293D+02  KE= 1.137975447855D+02
 Symmetry A1   KE= 1.034649165729D+02
 Symmetry A2   KE= 1.386534402147D-34
 Symmetry B1   KE= 3.619576557037D+00
 Symmetry B2   KE= 6.713051655513D+00
 No NMR shielding tensors so no spin-rotation constants.
 Leave Link  601 at Wed Sep  2 15:14:24 2015, MaxMem=    33554432 cpu:         1.4
 (Enter /group/hpc-share/gaussian/2009D/g09/l701.exe)
 Compute integral first derivatives.
 ... and contract with generalized density number  0.
 Leave Link  701 at Wed Sep  2 15:14:24 2015, MaxMem=    33554432 cpu:         1.4
 (Enter /group/hpc-share/gaussian/2009D/g09/l702.exe)
 L702 exits ... SP integral derivatives will be done elsewhere.
 Leave Link  702 at Wed Sep  2 15:14:24 2015, MaxMem=    33554432 cpu:         0.1
 (Enter /group/hpc-share/gaussian/2009D/g09/l703.exe)
 Compute integral first derivatives, UseDBF=F ICtDFT=           0.
 Integral derivatives from FoFJK, PRISM(SPDF).
 Calling FoFJK, ICntrl=      2127 FMM=F ISym2X=1 I1Cent= 0 IOpClX= 0 NMat=1 NMatS=1 NMatT=0.
 FoFJK:  IHMeth= 1 ICntrl=    2127 DoSepK=F KAlg= 0 I1Cent=   0 FoldK=F
 IRaf=         0 NMat=   1 IRICut=       1 DoRegI=T DoRafI=F ISym2E= 1.
 FoFCou: FMM=F IPFlag=           0 FMFlag=      100000 FMFlg1=         800
         NFxFlg=           0 DoJE=F BraDBF=F KetDBF=F FulRan=T
         wScrn=  0.000000 ICntrl=    2127 IOpCl=  0 I1Cent=           0 NGrid=           0
         NMat0=    1 NMatS0=      1 NMatT0=    0 NMatD0=    1 NMtDS0=    0 NMtDT0=    0
 Petite list used in FoFCou.
 Leave Link  703 at Wed Sep  2 15:14:25 2015, MaxMem=    33554432 cpu:         1.7
 (Enter /group/hpc-share/gaussian/2009D/g09/l716.exe)
 Dipole        = 4.75514375D-17 2.22044605D-16-9.78619809D-01
 ***** Axes restored to original set *****
 -------------------------------------------------------------------
 Center     Atomic                   Forces (Hartrees/Bohr)
 Number     Number              X              Y              Z
 -------------------------------------------------------------------
      1        6           0.000000000    0.000000000    0.034971826
      2        8           0.000000000    0.000000000   -0.012957950
      3        1           0.009901745    0.000000000   -0.011006938
      4        1          -0.009901745    0.000000000   -0.011006938
 -------------------------------------------------------------------
 Cartesian Forces:  Max     0.034971826 RMS     0.012346834
 Leave Link  716 at Wed Sep  2 15:14:25 2015, MaxMem=    33554432 cpu:         0.1
 (Enter /group/hpc-share/gaussian/2009D/g09/l103.exe)

 GradGradGradGradGradGradGradGradGradGradGradGradGradGradGradGradGradGrad
 Berny optimization.
 FormGI is forming the generalized inverse of G from B-inverse, IUseBI=4.
 Internal  Forces:  Max     0.014078632 RMS     0.009438403
 Search for a local minimum.
 Step number   1 out of a maximum of   20
 All quantities printed in internal units (Hartrees-Bohrs-Radians)
 RMS Force = .94384D-02 SwitMx=.10000D-02 MixMth= 1
 Mixed Optimization -- RFO/linear search
 Second derivative matrix not updated -- first step.
 The second derivative matrix:
                          R1        R2        R3        A1        A2
           R1           0.95383
           R2           0.00000   0.34928
           R3           0.00000   0.00000   0.34928
           A1           0.00000   0.00000   0.00000   0.16000
           A2           0.00000   0.00000   0.00000   0.00000   0.16000
           A3           0.00000   0.00000   0.00000   0.00000   0.00000
           D1           0.00000   0.00000   0.00000   0.00000   0.00000
                          A3        D1
           A3           0.16000
           D1           0.00000   0.00248
 ITU=  0
     Eigenvalues ---    0.00248   0.16000   0.16000   0.34928   0.34928
     Eigenvalues ---    0.95383
 RFO step:  Lambda=-1.67180289D-03 EMin= 2.48058143D-03
 Linear search not attempted -- first point.
 Iteration  1 RMS(Cart)=  0.02008139 RMS(Int)=  0.00040179
 Iteration  2 RMS(Cart)=  0.00043041 RMS(Int)=  0.00000010
 Iteration  3 RMS(Cart)=  0.00000008 RMS(Int)=  0.00000000
 ITry= 1 IFail=0 DXMaxC= 3.10D-02 DCOld= 1.00D+10 DXMaxT= 3.00D-01 DXLimC= 3.00D+00 Rises=F
 ClnCor:  largest displacement from symmetrization is 4.44D-11 for atom     1.
 Variable       Old X    -DE/DX   Delta X   Delta X   Delta X     New X
                                 (Linear)    (Quad)   (Total)
    R1        2.30547  -0.01296   0.00000  -0.01356  -0.01356   2.29190
    R2        2.05791   0.01408   0.00000   0.04012   0.04012   2.09803
    R3        2.05791   0.01408   0.00000   0.04012   0.04012   2.09803
    A1        2.09440   0.00314   0.00000   0.01944   0.01944   2.11383
    A2        2.09440   0.00314   0.00000   0.01944   0.01944   2.11383
    A3        2.09440  -0.00629   0.00000  -0.03888  -0.03888   2.05552
    D1        3.14159   0.00000   0.00000   0.00000   0.00000   3.14159
         Item               Value     Threshold  Converged?
 Maximum Force            0.014079     0.000450     NO 
 RMS     Force            0.009438     0.000300     NO 
 Maximum Displacement     0.030979     0.001800     NO 
 RMS     Displacement     0.020094     0.001200     NO 
 Predicted change in Energy=-8.406405D-04
 Lowest energy point so far.  Saving SCF results.
 GradGradGradGradGradGradGradGradGradGradGradGradGradGradGradGradGradGrad

 Leave Link  103 at Wed Sep  2 15:14:25 2015, MaxMem=    33554432 cpu:         0.1
 (Enter /group/hpc-share/gaussian/2009D/g09/l202.exe)
                          Input orientation:                          
 ---------------------------------------------------------------------
 Center     Atomic      Atomic             Coordinates (Angstroms)
 Number     Number       Type             X           Y           Z
 ---------------------------------------------------------------------
      1          6           0        0.000000    0.000000    0.016393
      2          8           0        0.000000    0.000000    1.229217
      3          1           0        0.950514    0.000000   -0.557305
      4          1           0       -0.950514    0.000000   -0.557305
 ---------------------------------------------------------------------
                    Distance matrix (angstroms):
                    1          2          3          4
     1  C    0.000000
     2  O    1.212824   0.000000
     3  H    1.110228   2.023644   0.000000
     4  H    1.110228   2.023644   1.901028   0.000000
 Stoichiometry    CH2O
 Framework group  C2V[C2(CO),SGV(H2)]
 Deg. of freedom     3
 Full point group                 C2V     NOp   4
 RotChk:  IX=0 Diff= 2.17D-15
 Largest Abelian subgroup         C2V     NOp   4
 Largest concise Abelian subgroup C2      NOp   2
                         Standard orientation:                         
 ---------------------------------------------------------------------
 Center     Atomic      Atomic             Coordinates (Angstroms)
 Number     Number       Type             X           Y           Z
 ---------------------------------------------------------------------
      1          6           0        0.000000    0.000000   -0.534700
      2          8           0        0.000000    0.000000    0.678124
      3          1           0        0.000000    0.950514   -1.108398
      4          1           0        0.000000   -0.950514   -1.108398
 ---------------------------------------------------------------------
 Rotational constants (GHZ):    277.5141572     38.5733439     33.8660940
 Leave Link  202 at Wed Sep  2 15:14:25 2015, MaxMem=    33554432 cpu:         0.0
 (Enter /group/hpc-share/gaussian/2009D/g09/l301.exe)
 Standard basis: Aug-CC-pVDZ (5D, 7F)
 Ernie: Thresh=  0.10000D-02 Tol=  0.10000D-05 Strict=F.
 Ernie:  4 primitive shells out of 64 were deleted.
 There are    33 symmetry adapted cartesian basis functions of A1  symmetry.
 There are     6 symmetry adapted cartesian basis functions of A2  symmetry.
 There are    12 symmetry adapted cartesian basis functions of B1  symmetry.
 There are    17 symmetry adapted cartesian basis functions of B2  symmetry.
 There are    29 symmetry adapted basis functions of A1  symmetry.
 There are     6 symmetry adapted basis functions of A2  symmetry.
 There are    12 symmetry adapted basis functions of B1  symmetry.
 There are    17 symmetry adapted basis functions of B2  symmetry.
    64 basis functions,   108 primitive gaussians,    68 cartesian basis functions
     8 alpha electrons        8 beta electrons
       nuclear repulsion energy        31.1252588263 Hartrees.
 IExCor=  402 DFT=T Ex+Corr=B3LYP ExCW=0 ScaHFX=  0.200000
 ScaDFX=  0.800000  0.720000  1.000000  0.810000 ScalE2=  1.000000  1.000000
 IRadAn=      0 IRanWt=     -1 IRanGd=            0 ICorTp=0 IEmpDi=  4
 NAtoms=    4 NActive=    4 NUniq=    3 SFac= 1.78D+00 NAtFMM=   60 NAOKFM=F Big=F
 Integral buffers will be    131072 words long.
 Raffenetti 2 integral format.
 Two-electron integral symmetry is turned on.
 Leave Link  301 at Wed Sep  2 15:14:25 2015, MaxMem=    33554432 cpu:         0.5
 (Enter /group/hpc-share/gaussian/2009D/g09/l302.exe)
 NPDir=0 NMtPBC=     1 NCelOv=     1 NCel=       1 NClECP=     1 NCelD=      1
         NCelK=      1 NCelE2=     1 NClLst=     1 CellRange=     0.0.
 One-electron integrals computed using PRISM.
 One-electron integral symmetry used in STVInt
 NBasis=    64 RedAO= T EigKep=  9.04D-04  NBF=    29     6    12    17
 NBsUse=    64 1.00D-06 EigRej= -1.00D+00 NBFU=    29     6    12    17
 Precomputing XC quadrature grid using
 IXCGrd= 4 IRadAn=           0 IRanWt=          -1 IRanGd=           0 AccXCQ= 0.00D+00.
 Generated NRdTot=       0 NPtTot=           0 NUsed=           0 NTot=          32
 NSgBfM=    68    68    68    68    68 MxSgAt=     4 MxSgA2=     4.
 Leave Link  302 at Wed Sep  2 15:14:25 2015, MaxMem=    33554432 cpu:         1.7
 (Enter /group/hpc-share/gaussian/2009D/g09/l303.exe)
 DipDrv:  MaxL=1.
 Leave Link  303 at Wed Sep  2 15:14:25 2015, MaxMem=    33554432 cpu:         0.3
 (Enter /group/hpc-share/gaussian/2009D/g09/l401.exe)
 Initial guess from the checkpoint file:  "formaldehyde.chk"
 B after Tr=     0.000000    0.000000    0.000000
         Rot=    1.000000    0.000000    0.000000    0.000000 Ang=   0.00 deg.
 Guess basis will be translated and rotated to current coordinates.
 JPrj=2 DoOrth=T DoCkMO=T.
 Initial guess orbital symmetries:
       Occupied  (A1) (A1) (A1) (A1) (B2) (A1) (B1) (B2)
       Virtual   (A1) (A1) (A1) (A1) (A1) (A1) (A1) (A1) (A1) (A1)
                 (A1) (A1) (A1) (A1) (A1) (A1) (A1) (A1) (A1) (A1)
                 (A1) (A1) (A1) (A1) (A2) (A2) (A2) (A2) (A2) (A2)
                 (B1) (B1) (B1) (B1) (B1) (B1) (B1) (B1) (B1) (B1)
                 (B1) (B2) (B2) (B2) (B2) (B2) (B2) (B2) (B2) (B2)
                 (B2) (B2) (B2) (B2) (B2) (B2)
 The electronic state of the initial guess is 1-A1.
 Generating alternative initial guess.
 ExpMin= 2.97D-02 ExpMax= 1.17D+04 ExpMxC= 4.01D+02 IAcc=3 IRadAn=         5 AccDes= 0.00D+00
 Harris functional with IExCor=  402 and IRadAn=       5 diagonalized for initial guess.
 HarFok:  IExCor=  402 AccDes= 0.00D+00 IRadAn=         5 IDoV= 1 UseB2=F ITyADJ=14
 ICtDFT=  3500011 ScaDFX=  1.000000  1.000000  1.000000  1.000000
 FoFCou: FMM=F IPFlag=           0 FMFlag=      100000 FMFlg1=           0
         NFxFlg=           0 DoJE=T BraDBF=F KetDBF=T FulRan=T
         wScrn=  0.000000 ICntrl=     500 IOpCl=  0 I1Cent=   200000004 NGrid=           0
         NMat0=    1 NMatS0=      1 NMatT0=    0 NMatD0=    1 NMtDS0=    0 NMtDT0=    0
 Petite list used in FoFCou.
 Harris En= -114.523878025063    
 Leave Link  401 at Wed Sep  2 15:14:26 2015, MaxMem=    33554432 cpu:         1.6
 (Enter /group/hpc-share/gaussian/2009D/g09/l502.exe)
 Closed shell SCF:
 Using DIIS extrapolation, IDIIS=  1040.
 Integral symmetry usage will be decided dynamically.
 Keep R1 ints in memory in symmetry-blocked form, NReq=3093648.
 IVT=       33634 IEndB=       33634 NGot=    33554432 MDV=    32945358
 LenX=    32945358 LenY=    32940293
 Requested convergence on RMS density matrix=1.00D-08 within 128 cycles.
 Requested convergence on MAX density matrix=1.00D-06.
 Requested convergence on             energy=1.00D-06.
 No special actions if energy rises.
 FoFCou: FMM=F IPFlag=           0 FMFlag=           0 FMFlg1=           0
         NFxFlg=           0 DoJE=F BraDBF=F KetDBF=F FulRan=T
         wScrn=  0.000000 ICntrl=     600 IOpCl=  0 I1Cent=           0 NGrid=           0
         NMat0=    1 NMatS0=   2080 NMatT0=    0 NMatD0=    1 NMtDS0=    0 NMtDT0=    0
 Petite list used in FoFCou.

 Cycle   1  Pass 1  IDiag  1:
 E= -114.520125509386    
 DIIS: error= 1.61D-03 at cycle   1 NSaved=   1.
 NSaved= 1 IEnMin= 1 EnMin= -114.520125509386     IErMin= 1 ErrMin= 1.61D-03
 ErrMax= 1.61D-03  0.00D+00 EMaxC= 1.00D-01 BMatC= 2.67D-04 BMatP= 2.67D-04
 IDIUse=3 WtCom= 9.84D-01 WtEn= 1.61D-02
 Coeff-Com:  0.100D+01
 Coeff-En:   0.100D+01
 Coeff:      0.100D+01
 Gap=     0.490 Goal=   None    Shift=    0.000
 GapD=    0.490 DampG=2.000 DampE=1.000 DampFc=2.0000 IDamp=-1.
 RMSDP=1.29D-03 MaxDP=2.31D-02              OVMax= 8.25D-03

 Cycle   2  Pass 1  IDiag  1:
 E= -114.520409648569     Delta-E=       -0.000284139183 Rises=F Damp=F
 DIIS: error= 1.28D-03 at cycle   2 NSaved=   2.
 NSaved= 2 IEnMin= 2 EnMin= -114.520409648569     IErMin= 2 ErrMin= 1.28D-03
 ErrMax= 1.28D-03  0.00D+00 EMaxC= 1.00D-01 BMatC= 6.23D-05 BMatP= 2.67D-04
 IDIUse=3 WtCom= 9.87D-01 WtEn= 1.28D-02
 Coeff-Com:  0.235D+00 0.765D+00
 Coeff-En:   0.000D+00 0.100D+01
 Coeff:      0.232D+00 0.768D+00
 Gap=     0.213 Goal=   None    Shift=    0.000
 RMSDP=1.71D-04 MaxDP=4.24D-03 DE=-2.84D-04 OVMax= 7.02D-03

 Cycle   3  Pass 1  IDiag  1:
 E= -114.520363558338     Delta-E=        0.000046090231 Rises=F Damp=F
 DIIS: error= 1.89D-03 at cycle   3 NSaved=   3.
 NSaved= 3 IEnMin= 2 EnMin= -114.520409648569     IErMin= 2 ErrMin= 1.28D-03
 ErrMax= 1.89D-03  0.00D+00 EMaxC= 1.00D-01 BMatC= 1.24D-04 BMatP= 6.23D-05
 IDIUse=3 WtCom= 1.87D-01 WtEn= 8.13D-01
 Coeff-Com:  0.840D-02 0.585D+00 0.406D+00
 Coeff-En:   0.000D+00 0.624D+00 0.376D+00
 Coeff:      0.157D-02 0.617D+00 0.382D+00
 Gap=     0.214 Goal=   None    Shift=    0.000
 RMSDP=9.55D-05 MaxDP=2.58D-03 DE= 4.61D-05 OVMax= 4.35D-03

 Cycle   4  Pass 1  IDiag  1:
 E= -114.520458576613     Delta-E=       -0.000095018274 Rises=F Damp=F
 DIIS: error= 1.55D-04 at cycle   4 NSaved=   4.
 NSaved= 4 IEnMin= 4 EnMin= -114.520458576613     IErMin= 4 ErrMin= 1.55D-04
 ErrMax= 1.55D-04  0.00D+00 EMaxC= 1.00D-01 BMatC= 1.39D-06 BMatP= 6.23D-05
 IDIUse=3 WtCom= 9.98D-01 WtEn= 1.55D-03
 Coeff-Com: -0.121D-01 0.229D+00 0.129D+00 0.654D+00
 Coeff-En:   0.000D+00 0.000D+00 0.000D+00 0.100D+01
 Coeff:     -0.121D-01 0.229D+00 0.128D+00 0.655D+00
 Gap=     0.214 Goal=   None    Shift=    0.000
 RMSDP=1.65D-05 MaxDP=3.13D-04 DE=-9.50D-05 OVMax= 3.62D-04

 Cycle   5  Pass 1  IDiag  1:
 E= -114.520459814333     Delta-E=       -0.000001237720 Rises=F Damp=F
 DIIS: error= 2.73D-05 at cycle   5 NSaved=   5.
 NSaved= 5 IEnMin= 5 EnMin= -114.520459814333     IErMin= 5 ErrMin= 2.73D-05
 ErrMax= 2.73D-05  0.00D+00 EMaxC= 1.00D-01 BMatC= 4.89D-08 BMatP= 1.39D-06
 IDIUse=1 WtCom= 1.00D+00 WtEn= 0.00D+00
 Coeff-Com: -0.355D-02 0.467D-01 0.242D-01 0.230D+00 0.702D+00
 Coeff:     -0.355D-02 0.467D-01 0.242D-01 0.230D+00 0.702D+00
 Gap=     0.214 Goal=   None    Shift=    0.000
 RMSDP=3.56D-06 MaxDP=7.30D-05 DE=-1.24D-06 OVMax= 8.32D-05

 Cycle   6  Pass 1  IDiag  1:
 E= -114.520459866551     Delta-E=       -0.000000052218 Rises=F Damp=F
 DIIS: error= 7.06D-06 at cycle   6 NSaved=   6.
 NSaved= 6 IEnMin= 6 EnMin= -114.520459866551     IErMin= 6 ErrMin= 7.06D-06
 ErrMax= 7.06D-06  0.00D+00 EMaxC= 1.00D-01 BMatC= 2.18D-09 BMatP= 4.89D-08
 IDIUse=1 WtCom= 1.00D+00 WtEn= 0.00D+00
 Coeff-Com:  0.104D-03-0.688D-02-0.413D-03-0.128D-01 0.762D-01 0.944D+00
 Coeff:      0.104D-03-0.688D-02-0.413D-03-0.128D-01 0.762D-01 0.944D+00
 Gap=     0.214 Goal=   None    Shift=    0.000
 RMSDP=7.11D-07 MaxDP=9.92D-06 DE=-5.22D-08 OVMax= 1.43D-05

 Cycle   7  Pass 1  IDiag  1:
 E= -114.520459868455     Delta-E=       -0.000000001904 Rises=F Damp=F
 DIIS: error= 2.73D-07 at cycle   7 NSaved=   7.
 NSaved= 7 IEnMin= 7 EnMin= -114.520459868455     IErMin= 7 ErrMin= 2.73D-07
 ErrMax= 2.73D-07  0.00D+00 EMaxC= 1.00D-01 BMatC= 5.96D-12 BMatP= 2.18D-09
 IDIUse=1 WtCom= 1.00D+00 WtEn= 0.00D+00
 Coeff-Com:  0.276D-04-0.433D-03 0.608D-05-0.241D-02-0.490D-03 0.889D-02
 Coeff-Com:  0.994D+00
 Coeff:      0.276D-04-0.433D-03 0.608D-05-0.241D-02-0.490D-03 0.889D-02
 Coeff:      0.994D+00
 Gap=     0.214 Goal=   None    Shift=    0.000
 RMSDP=4.07D-08 MaxDP=4.85D-07 DE=-1.90D-09 OVMax= 1.11D-06

 Cycle   8  Pass 1  IDiag  1:
 E= -114.520459868461     Delta-E=       -0.000000000006 Rises=F Damp=F
 DIIS: error= 1.75D-08 at cycle   8 NSaved=   8.
 NSaved= 8 IEnMin= 8 EnMin= -114.520459868461     IErMin= 8 ErrMin= 1.75D-08
 ErrMax= 1.75D-08  0.00D+00 EMaxC= 1.00D-01 BMatC= 2.58D-14 BMatP= 5.96D-12
 IDIUse=1 WtCom= 1.00D+00 WtEn= 0.00D+00
 Coeff-Com:  0.867D-06 0.487D-04 0.292D-05-0.885D-04-0.977D-03-0.125D-01
 Coeff-Com:  0.811D-01 0.932D+00
 Coeff:      0.867D-06 0.487D-04 0.292D-05-0.885D-04-0.977D-03-0.125D-01
 Coeff:      0.811D-01 0.932D+00
 Gap=     0.214 Goal=   None    Shift=    0.000
 RMSDP=4.16D-09 MaxDP=5.91D-08 DE=-6.03D-12 OVMax= 1.36D-07

 SCF Done:  E(RB3LYP) =  -114.520459868     A.U. after    8 cycles
            NFock=  8  Conv=0.42D-08     -V/T= 2.0067
 KE= 1.137631640560D+02 PE=-3.308224911565D+02 EE= 7.141360840564D+01
 Leave Link  502 at Wed Sep  2 15:14:26 2015, MaxMem=    33554432 cpu:         2.6
 (Enter /group/hpc-share/gaussian/2009D/g09/l701.exe)
 Compute integral first derivatives.
 ... and contract with generalized density number  0.
 Leave Link  701 at Wed Sep  2 15:14:26 2015, MaxMem=    33554432 cpu:         1.3
 (Enter /group/hpc-share/gaussian/2009D/g09/l702.exe)
 L702 exits ... SP integral derivatives will be done elsewhere.
 Leave Link  702 at Wed Sep  2 15:14:26 2015, MaxMem=    33554432 cpu:         0.1
 (Enter /group/hpc-share/gaussian/2009D/g09/l703.exe)
 Compute integral first derivatives, UseDBF=F ICtDFT=           0.
 Integral derivatives from FoFJK, PRISM(SPDF).
 Calling FoFJK, ICntrl=      2127 FMM=F ISym2X=1 I1Cent= 0 IOpClX= 0 NMat=1 NMatS=1 NMatT=0.
 FoFJK:  IHMeth= 1 ICntrl=    2127 DoSepK=F KAlg= 0 I1Cent=   0 FoldK=F
 IRaf=         0 NMat=   1 IRICut=       1 DoRegI=T DoRafI=F ISym2E= 1.
 FoFCou: FMM=F IPFlag=           0 FMFlag=      100000 FMFlg1=         800
         NFxFlg=           0 DoJE=F BraDBF=F KetDBF=F FulRan=T
         wScrn=  0.000000 ICntrl=    2127 IOpCl=  0 I1Cent=           0 NGrid=           0
         NMat0=    1 NMatS0=      1 NMatT0=    0 NMatD0=    1 NMtDS0=    0 NMtDT0=    0
 Petite list used in FoFCou.
 Leave Link  703 at Wed Sep  2 15:14:27 2015, MaxMem=    33554432 cpu:         1.7
 (Enter /group/hpc-share/gaussian/2009D/g09/l716.exe)
 Dipole        = 4.34172509D-17 0.00000000D+00-9.57845652D-01
 ***** Axes restored to original set *****
 -------------------------------------------------------------------
 Center     Atomic                   Forces (Hartrees/Bohr)
 Number     Number              X              Y              Z
 -------------------------------------------------------------------
      1        6           0.000000000    0.000000000    0.011738079
      2        8           0.000000000    0.000000000   -0.006912636
      3        1           0.000322942    0.000000000   -0.002412721
      4        1          -0.000322942    0.000000000   -0.002412721
 -------------------------------------------------------------------
 Cartesian Forces:  Max     0.011738079 RMS     0.004056045
 Leave Link  716 at Wed Sep  2 15:14:27 2015, MaxMem=    33554432 cpu:         0.1
 (Enter /group/hpc-share/gaussian/2009D/g09/l103.exe)

 GradGradGradGradGradGradGradGradGradGradGradGradGradGradGradGradGradGrad
 Berny optimization.
 Using GEDIIS/GDIIS optimizer.
 FormGI is forming the generalized inverse of G from B-inverse, IUseBI=4.
 Internal  Forces:  Max     0.006912636 RMS     0.003000110
 Search for a local minimum.
 Step number   2 out of a maximum of   20
 All quantities printed in internal units (Hartrees-Bohrs-Radians)
 RMS Force = .30001D-02 SwitMx=.10000D-02 MixMth= 1
 Mixed Optimization -- RFO/linear search
 Update second derivatives using D2CorX and points    1    2
 DE= -1.01D-03 DEPred=-8.41D-04 R= 1.20D+00
 TightC=F SS=  1.41D+00  RLast= 7.53D-02 DXNew= 5.0454D-01 2.2589D-01
 Trust test= 1.20D+00 RLast= 7.53D-02 DXMaxT set to 3.00D-01
 The second derivative matrix:
                          R1        R2        R3        A1        A2
           R1           0.88127
           R2           0.05069   0.35235
           R3           0.05069   0.00307   0.35235
           A1           0.01577  -0.00870  -0.00870   0.15671
           A2           0.01577  -0.00870  -0.00870  -0.00329   0.15671
           A3          -0.03154   0.01740   0.01740   0.00658   0.00658
           D1           0.00000   0.00000   0.00000   0.00000   0.00000
                          A3        D1
           A3           0.14685
           D1           0.00000   0.00248
 ITU=  1  0
 Use linear search instead of GDIIS.
     Eigenvalues ---    0.00248   0.13297   0.16000   0.34928   0.35156
     Eigenvalues ---    0.89243
 RFO step:  Lambda=-8.11114052D-05 EMin= 2.48058143D-03
 Quartic linear search produced a step of  0.30404.
 Iteration  1 RMS(Cart)=  0.00904711 RMS(Int)=  0.00009388
 Iteration  2 RMS(Cart)=  0.00009859 RMS(Int)=  0.00000000
 Iteration  3 RMS(Cart)=  0.00000000 RMS(Int)=  0.00000000
 ITry= 1 IFail=0 DXMaxC= 1.56D-02 DCOld= 1.00D+10 DXMaxT= 3.00D-01 DXLimC= 3.00D+00 Rises=F
 ClnCor:  largest displacement from symmetrization is 5.34D-11 for atom     1.
 Variable       Old X    -DE/DX   Delta X   Delta X   Delta X     New X
                                 (Linear)    (Quad)   (Total)
    R1        2.29190  -0.00691  -0.00412  -0.00602  -0.01014   2.28176
    R2        2.09803   0.00152   0.01220  -0.00418   0.00802   2.10604
    R3        2.09803   0.00152   0.01220  -0.00418   0.00802   2.10604
    A1        2.11383   0.00133   0.00591   0.00629   0.01220   2.12604
    A2        2.11383   0.00133   0.00591   0.00629   0.01220   2.12604
    A3        2.05552  -0.00266  -0.01182  -0.01258  -0.02440   2.03111
    D1        3.14159   0.00000   0.00000   0.00000   0.00000   3.14159
         Item               Value     Threshold  Converged?
 Maximum Force            0.006913     0.000450     NO 
 RMS     Force            0.003000     0.000300     NO 
 Maximum Displacement     0.015567     0.001800     NO 
 RMS     Displacement     0.009085     0.001200     NO 
 Predicted change in Energy=-9.109055D-05
 Lowest energy point so far.  Saving SCF results.
 GradGradGradGradGradGradGradGradGradGradGradGradGradGradGradGradGradGrad

 Leave Link  103 at Wed Sep  2 15:14:27 2015, MaxMem=    33554432 cpu:         0.1
 (Enter /group/hpc-share/gaussian/2009D/g09/l202.exe)
                          Input orientation:                          
 ---------------------------------------------------------------------
 Center     Atomic      Atomic             Coordinates (Angstroms)
 Number     Number       Type             X           Y           Z
 ---------------------------------------------------------------------
      1          6           0        0.000000    0.000000    0.024631
      2          8           0        0.000000    0.000000    1.232087
      3          1           0        0.947049    0.000000   -0.562859
      4          1           0       -0.947049    0.000000   -0.562859
 ---------------------------------------------------------------------
                    Distance matrix (angstroms):
                    1          2          3          4
     1  C    0.000000
     2  O    1.207456   0.000000
     3  H    1.114471   2.029466   0.000000
     4  H    1.114471   2.029466   1.894097   0.000000
 Stoichiometry    CH2O
 Framework group  C2V[C2(CO),SGV(H2)]
 Deg. of freedom     3
 Full point group                 C2V     NOp   4
 RotChk:  IX=0 Diff= 4.38D-15
 Largest Abelian subgroup         C2V     NOp   4
 Largest concise Abelian subgroup C2      NOp   2
                         Standard orientation:                         
 ---------------------------------------------------------------------
 Center     Atomic      Atomic             Coordinates (Angstroms)
 Number     Number       Type             X           Y           Z
 ---------------------------------------------------------------------
      1          6           0        0.000000    0.000000   -0.530292
      2          8           0        0.000000    0.000000    0.677164
      3          1           0        0.000000    0.947049   -1.117781
      4          1           0        0.000000   -0.947049   -1.117781
 ---------------------------------------------------------------------
 Rotational constants (GHZ):    279.5487557     38.6848469     33.9822719
 Leave Link  202 at Wed Sep  2 15:14:27 2015, MaxMem=    33554432 cpu:         0.1
 (Enter /group/hpc-share/gaussian/2009D/g09/l301.exe)
 Standard basis: Aug-CC-pVDZ (5D, 7F)
 Ernie: Thresh=  0.10000D-02 Tol=  0.10000D-05 Strict=F.
 Ernie:  4 primitive shells out of 64 were deleted.
 There are    33 symmetry adapted cartesian basis functions of A1  symmetry.
 There are     6 symmetry adapted cartesian basis functions of A2  symmetry.
 There are    12 symmetry adapted cartesian basis functions of B1  symmetry.
 There are    17 symmetry adapted cartesian basis functions of B2  symmetry.
 There are    29 symmetry adapted basis functions of A1  symmetry.
 There are     6 symmetry adapted basis functions of A2  symmetry.
 There are    12 symmetry adapted basis functions of B1  symmetry.
 There are    17 symmetry adapted basis functions of B2  symmetry.
    64 basis functions,   108 primitive gaussians,    68 cartesian basis functions
     8 alpha electrons        8 beta electrons
       nuclear repulsion energy        31.1855975395 Hartrees.
 IExCor=  402 DFT=T Ex+Corr=B3LYP ExCW=0 ScaHFX=  0.200000
 ScaDFX=  0.800000  0.720000  1.000000  0.810000 ScalE2=  1.000000  1.000000
 IRadAn=      0 IRanWt=     -1 IRanGd=            0 ICorTp=0 IEmpDi=  4
 NAtoms=    4 NActive=    4 NUniq=    3 SFac= 1.78D+00 NAtFMM=   60 NAOKFM=F Big=F
 Integral buffers will be    131072 words long.
 Raffenetti 2 integral format.
 Two-electron integral symmetry is turned on.
 Leave Link  301 at Wed Sep  2 15:14:27 2015, MaxMem=    33554432 cpu:         0.3
 (Enter /group/hpc-share/gaussian/2009D/g09/l302.exe)
 NPDir=0 NMtPBC=     1 NCelOv=     1 NCel=       1 NClECP=     1 NCelD=      1
         NCelK=      1 NCelE2=     1 NClLst=     1 CellRange=     0.0.
 One-electron integrals computed using PRISM.
 One-electron integral symmetry used in STVInt
 NBasis=    64 RedAO= T EigKep=  9.11D-04  NBF=    29     6    12    17
 NBsUse=    64 1.00D-06 EigRej= -1.00D+00 NBFU=    29     6    12    17
 Precomputing XC quadrature grid using
 IXCGrd= 4 IRadAn=           0 IRanWt=          -1 IRanGd=           0 AccXCQ= 0.00D+00.
 Generated NRdTot=       0 NPtTot=           0 NUsed=           0 NTot=          32
 NSgBfM=    68    68    68    68    68 MxSgAt=     4 MxSgA2=     4.
 Leave Link  302 at Wed Sep  2 15:14:27 2015, MaxMem=    33554432 cpu:         1.5
 (Enter /group/hpc-share/gaussian/2009D/g09/l303.exe)
 DipDrv:  MaxL=1.
 Leave Link  303 at Wed Sep  2 15:14:27 2015, MaxMem=    33554432 cpu:         0.2
 (Enter /group/hpc-share/gaussian/2009D/g09/l401.exe)
 Initial guess from the checkpoint file:  "formaldehyde.chk"
 B after Tr=     0.000000    0.000000    0.000000
         Rot=    1.000000    0.000000    0.000000    0.000000 Ang=   0.00 deg.
 Guess basis will be translated and rotated to current coordinates.
 JPrj=2 DoOrth=T DoCkMO=T.
 Initial guess orbital symmetries:
       Occupied  (A1) (A1) (A1) (A1) (B2) (A1) (B1) (B2)
       Virtual   (A1) (A1) (A1) (A1) (A1) (A1) (A1) (A1) (A1) (A1)
                 (A1) (A1) (A1) (A1) (A1) (A1) (A1) (A1) (A1) (A1)
                 (A1) (A1) (A1) (A1) (A2) (A2) (A2) (A2) (A2) (A2)
                 (B1) (B1) (B1) (B1) (B1) (B1) (B1) (B1) (B1) (B1)
                 (B1) (B2) (B2) (B2) (B2) (B2) (B2) (B2) (B2) (B2)
                 (B2) (B2) (B2) (B2) (B2) (B2)
 The electronic state of the initial guess is 1-A1.
 Leave Link  401 at Wed Sep  2 15:14:27 2015, MaxMem=    33554432 cpu:         1.1
 (Enter /group/hpc-share/gaussian/2009D/g09/l502.exe)
 Closed shell SCF:
 Using DIIS extrapolation, IDIIS=  1040.
 Integral symmetry usage will be decided dynamically.
 Keep R1 ints in memory in symmetry-blocked form, NReq=3093648.
 IVT=       33634 IEndB=       33634 NGot=    33554432 MDV=    32945358
 LenX=    32945358 LenY=    32940293
 Requested convergence on RMS density matrix=1.00D-08 within 128 cycles.
 Requested convergence on MAX density matrix=1.00D-06.
 Requested convergence on             energy=1.00D-06.
 No special actions if energy rises.
 FoFCou: FMM=F IPFlag=           0 FMFlag=           0 FMFlg1=           0
         NFxFlg=           0 DoJE=F BraDBF=F KetDBF=F FulRan=T
         wScrn=  0.000000 ICntrl=     600 IOpCl=  0 I1Cent=           0 NGrid=           0
         NMat0=    1 NMatS0=   2080 NMatT0=    0 NMatD0=    1 NMtDS0=    0 NMtDT0=    0
 Petite list used in FoFCou.

 Cycle   1  Pass 1  IDiag  1:
 E= -114.520481483688    
 DIIS: error= 9.23D-04 at cycle   1 NSaved=   1.
 NSaved= 1 IEnMin= 1 EnMin= -114.520481483688     IErMin= 1 ErrMin= 9.23D-04
 ErrMax= 9.23D-04  0.00D+00 EMaxC= 1.00D-01 BMatC= 6.24D-05 BMatP= 6.24D-05
 IDIUse=3 WtCom= 9.91D-01 WtEn= 9.23D-03
 Coeff-Com:  0.100D+01
 Coeff-En:   0.100D+01
 Coeff:      0.100D+01
 Gap=     0.488 Goal=   None    Shift=    0.000
 RMSDP=3.66D-04 MaxDP=5.41D-03              OVMax= 3.79D-03

 Cycle   2  Pass 1  IDiag  1:
 E= -114.520545534284     Delta-E=       -0.000064050596 Rises=F Damp=F
 DIIS: error= 6.37D-04 at cycle   2 NSaved=   2.
 NSaved= 2 IEnMin= 2 EnMin= -114.520545534284     IErMin= 2 ErrMin= 6.37D-04
 ErrMax= 6.37D-04  0.00D+00 EMaxC= 1.00D-01 BMatC= 1.48D-05 BMatP= 6.24D-05
 IDIUse=3 WtCom= 9.94D-01 WtEn= 6.37D-03
 Coeff-Com:  0.238D+00 0.762D+00
 Coeff-En:   0.000D+00 0.100D+01
 Coeff:      0.237D+00 0.763D+00
 Gap=     0.214 Goal=   None    Shift=    0.000
 RMSDP=8.14D-05 MaxDP=2.05D-03 DE=-6.41D-05 OVMax= 3.36D-03

 Cycle   3  Pass 1  IDiag  1:
 E= -114.520535065059     Delta-E=        0.000010469224 Rises=F Damp=F
 DIIS: error= 9.01D-04 at cycle   3 NSaved=   3.
 NSaved= 3 IEnMin= 2 EnMin= -114.520545534284     IErMin= 2 ErrMin= 6.37D-04
 ErrMax= 9.01D-04  0.00D+00 EMaxC= 1.00D-01 BMatC= 2.84D-05 BMatP= 1.48D-05
 IDIUse=3 WtCom= 2.50D-01 WtEn= 7.50D-01
 Coeff-Com:  0.676D-02 0.580D+00 0.413D+00
 Coeff-En:   0.000D+00 0.623D+00 0.377D+00
 Coeff:      0.169D-02 0.612D+00 0.386D+00
 Gap=     0.215 Goal=   None    Shift=    0.000
 RMSDP=4.58D-05 MaxDP=1.23D-03 DE= 1.05D-05 OVMax= 2.07D-03

 Cycle   4  Pass 1  IDiag  1:
 E= -114.520556764884     Delta-E=       -0.000021699825 Rises=F Damp=F
 DIIS: error= 6.72D-05 at cycle   4 NSaved=   4.
 NSaved= 4 IEnMin= 4 EnMin= -114.520556764884     IErMin= 4 ErrMin= 6.72D-05
 ErrMax= 6.72D-05  0.00D+00 EMaxC= 1.00D-01 BMatC= 2.64D-07 BMatP= 1.48D-05
 IDIUse=1 WtCom= 1.00D+00 WtEn= 0.00D+00
 Coeff-Com: -0.123D-01 0.214D+00 0.122D+00 0.677D+00
 Coeff:     -0.123D-01 0.214D+00 0.122D+00 0.677D+00
 Gap=     0.215 Goal=   None    Shift=    0.000
 RMSDP=7.03D-06 MaxDP=1.26D-04 DE=-2.17D-05 OVMax= 1.62D-04

 Cycle   5  Pass 1  IDiag  1:
 E= -114.520556987962     Delta-E=       -0.000000223078 Rises=F Damp=F
 DIIS: error= 1.57D-05 at cycle   5 NSaved=   5.
 NSaved= 5 IEnMin= 5 EnMin= -114.520556987962     IErMin= 5 ErrMin= 1.57D-05
 ErrMax= 1.57D-05  0.00D+00 EMaxC= 1.00D-01 BMatC= 1.24D-08 BMatP= 2.64D-07
 IDIUse=1 WtCom= 1.00D+00 WtEn= 0.00D+00
 Coeff-Com: -0.337D-02 0.450D-01 0.249D-01 0.250D+00 0.683D+00
 Coeff:     -0.337D-02 0.450D-01 0.249D-01 0.250D+00 0.683D+00
 Gap=     0.215 Goal=   None    Shift=    0.000
 RMSDP=1.75D-06 MaxDP=3.81D-05 DE=-2.23D-07 OVMax= 4.36D-05

 Cycle   6  Pass 1  IDiag  1:
 E= -114.520557000995     Delta-E=       -0.000000013033 Rises=F Damp=F
 DIIS: error= 2.86D-06 at cycle   6 NSaved=   6.
 NSaved= 6 IEnMin= 6 EnMin= -114.520557000995     IErMin= 6 ErrMin= 2.86D-06
 ErrMax= 2.86D-06  0.00D+00 EMaxC= 1.00D-01 BMatC= 3.69D-10 BMatP= 1.24D-08
 IDIUse=1 WtCom= 1.00D+00 WtEn= 0.00D+00
 Coeff-Com:  0.111D-03-0.674D-02-0.102D-02-0.977D-02 0.807D-01 0.937D+00
 Coeff:      0.111D-03-0.674D-02-0.102D-02-0.977D-02 0.807D-01 0.937D+00
 Gap=     0.215 Goal=   None    Shift=    0.000
 RMSDP=3.37D-07 MaxDP=4.56D-06 DE=-1.30D-08 OVMax= 6.23D-06

 Cycle   7  Pass 1  IDiag  1:
 E= -114.520557001324     Delta-E=       -0.000000000329 Rises=F Damp=F
 DIIS: error= 8.45D-08 at cycle   7 NSaved=   7.
 NSaved= 7 IEnMin= 7 EnMin= -114.520557001324     IErMin= 7 ErrMin= 8.45D-08
 ErrMax= 8.45D-08  0.00D+00 EMaxC= 1.00D-01 BMatC= 4.20D-13 BMatP= 3.69D-10
 IDIUse=1 WtCom= 1.00D+00 WtEn= 0.00D+00
 Coeff-Com:  0.144D-04-0.103D-03-0.552D-04-0.167D-02-0.226D-02-0.254D-01
 Coeff-Com:  0.103D+01
 Coeff:      0.144D-04-0.103D-03-0.552D-04-0.167D-02-0.226D-02-0.254D-01
 Coeff:      0.103D+01
 Gap=     0.215 Goal=   None    Shift=    0.000
 RMSDP=1.26D-08 MaxDP=1.70D-07 DE=-3.29D-10 OVMax= 3.91D-07

 Cycle   8  Pass 1  IDiag  1:
 E= -114.520557001324     Delta-E=        0.000000000000 Rises=F Damp=F
 DIIS: error= 2.63D-08 at cycle   8 NSaved=   8.
 NSaved= 8 IEnMin= 7 EnMin= -114.520557001324     IErMin= 8 ErrMin= 2.63D-08
 ErrMax= 2.63D-08  0.00D+00 EMaxC= 1.00D-01 BMatC= 3.14D-14 BMatP= 4.20D-13
 IDIUse=1 WtCom= 1.00D+00 WtEn= 0.00D+00
 Coeff-Com: -0.507D-06 0.454D-04 0.369D-04-0.133D-04-0.620D-03-0.819D-02
 Coeff-Com:  0.339D-01 0.975D+00
 Coeff:     -0.507D-06 0.454D-04 0.369D-04-0.133D-04-0.620D-03-0.819D-02
 Coeff:      0.339D-01 0.975D+00
 Gap=     0.215 Goal=   None    Shift=    0.000
 RMSDP=2.54D-09 MaxDP=2.98D-08 DE= 1.14D-13 OVMax= 6.10D-08

 SCF Done:  E(RB3LYP) =  -114.520557001     A.U. after    8 cycles
            NFock=  8  Conv=0.25D-08     -V/T= 2.0066
 KE= 1.137709999275D+02 PE=-3.309388583443D+02 EE= 7.146170387593D+01
 Leave Link  502 at Wed Sep  2 15:14:28 2015, MaxMem=    33554432 cpu:         2.2
 (Enter /group/hpc-share/gaussian/2009D/g09/l701.exe)
 Compute integral first derivatives.
 ... and contract with generalized density number  0.
 Leave Link  701 at Wed Sep  2 15:14:28 2015, MaxMem=    33554432 cpu:         1.0
 (Enter /group/hpc-share/gaussian/2009D/g09/l702.exe)
 L702 exits ... SP integral derivatives will be done elsewhere.
 Leave Link  702 at Wed Sep  2 15:14:28 2015, MaxMem=    33554432 cpu:         0.2
 (Enter /group/hpc-share/gaussian/2009D/g09/l703.exe)
 Compute integral first derivatives, UseDBF=F ICtDFT=           0.
 Integral derivatives from FoFJK, PRISM(SPDF).
 Calling FoFJK, ICntrl=      2127 FMM=F ISym2X=1 I1Cent= 0 IOpClX= 0 NMat=1 NMatS=1 NMatT=0.
 FoFJK:  IHMeth= 1 ICntrl=    2127 DoSepK=F KAlg= 0 I1Cent=   0 FoldK=F
 IRaf=         0 NMat=   1 IRICut=       1 DoRegI=T DoRafI=F ISym2E= 1.
 FoFCou: FMM=F IPFlag=           0 FMFlag=      100000 FMFlg1=         800
         NFxFlg=           0 DoJE=F BraDBF=F KetDBF=F FulRan=T
         wScrn=  0.000000 ICntrl=    2127 IOpCl=  0 I1Cent=           0 NGrid=           0
         NMat0=    1 NMatS0=      1 NMatT0=    0 NMatD0=    1 NMtDS0=    0 NMtDT0=    0
 Petite list used in FoFCou.
 Leave Link  703 at Wed Sep  2 15:14:28 2015, MaxMem=    33554432 cpu:         1.8
 (Enter /group/hpc-share/gaussian/2009D/g09/l716.exe)
 Dipole        = 4.30855927D-17 2.22044605D-16-9.47738186D-01
 ***** Axes restored to original set *****
 -------------------------------------------------------------------
 Center     Atomic                   Forces (Hartrees/Bohr)
 Number     Number              X              Y              Z
 -------------------------------------------------------------------
      1        6           0.000000000    0.000000000    0.000049984
      2        8           0.000000000    0.000000000   -0.000233557
      3        1          -0.000322087    0.000000000    0.000091787
      4        1           0.000322087    0.000000000    0.000091787
 -------------------------------------------------------------------
 Cartesian Forces:  Max     0.000322087 RMS     0.000153128
 Leave Link  716 at Wed Sep  2 15:14:28 2015, MaxMem=    33554432 cpu:         0.2
 (Enter /group/hpc-share/gaussian/2009D/g09/l103.exe)

 GradGradGradGradGradGradGradGradGradGradGradGradGradGradGradGradGradGrad
 Berny optimization.
 Using GEDIIS/GDIIS optimizer.
 FormGI is forming the generalized inverse of G from B-inverse, IUseBI=4.
 Internal  Forces:  Max     0.000322087 RMS     0.000202464
 Search for a local minimum.
 Step number   3 out of a maximum of   20
 All quantities printed in internal units (Hartrees-Bohrs-Radians)
 RMS Force = .20246D-03 SwitMx=.10000D-02 MixMth= 2
 Mixed Optimization -- En-DIIS/RFO-DIIS
 Update second derivatives using D2CorX and points    1    2    3
 DE= -9.71D-05 DEPred=-9.11D-05 R= 1.07D+00
 TightC=F SS=  1.41D+00  RLast= 3.35D-02 DXNew= 5.0454D-01 1.0061D-01
 Trust test= 1.07D+00 RLast= 3.35D-02 DXMaxT set to 3.00D-01
 The second derivative matrix:
                          R1        R2        R3        A1        A2
           R1           0.87439
           R2           0.04525   0.35830
           R3           0.04525   0.00902   0.35830
           A1           0.02000  -0.00875  -0.00875   0.15528
           A2           0.02000  -0.00875  -0.00875  -0.00472   0.15528
           A3          -0.04000   0.01750   0.01750   0.00944   0.00944
           D1           0.00000   0.00000   0.00000   0.00000   0.00000
                          A3        D1
           A3           0.14111
           D1           0.00000   0.00248
 ITU=  1  1  0
 Use linear search instead of GDIIS.
     Eigenvalues ---    0.00248   0.12349   0.16000   0.34928   0.36487
     Eigenvalues ---    0.88502
 RFO step:  Lambda=-7.06901296D-07 EMin= 2.48058143D-03
 Quartic linear search produced a step of  0.01003.
 Iteration  1 RMS(Cart)=  0.00061575 RMS(Int)=  0.00000017
 Iteration  2 RMS(Cart)=  0.00000014 RMS(Int)=  0.00000000
 ITry= 1 IFail=0 DXMaxC= 1.14D-03 DCOld= 1.00D+10 DXMaxT= 3.00D-01 DXLimC= 3.00D+00 Rises=F
 ClnCor:  largest displacement from symmetrization is 5.55D-11 for atom     1.
 Variable       Old X    -DE/DX   Delta X   Delta X   Delta X     New X
                                 (Linear)    (Quad)   (Total)
    R1        2.28176  -0.00023  -0.00010  -0.00014  -0.00024   2.28152
    R2        2.10604  -0.00032   0.00008  -0.00087  -0.00079   2.10526
    R3        2.10604  -0.00032   0.00008  -0.00087  -0.00079   2.10526
    A1        2.12604   0.00006   0.00012   0.00030   0.00042   2.12646
    A2        2.12604   0.00006   0.00012   0.00030   0.00042   2.12646
    A3        2.03111  -0.00013  -0.00024  -0.00060  -0.00084   2.03027
    D1        3.14159   0.00000   0.00000   0.00000   0.00000   3.14159
         Item               Value     Threshold  Converged?
 Maximum Force            0.000322     0.000450     YES
 RMS     Force            0.000202     0.000300     YES
 Maximum Displacement     0.001135     0.001800     YES
 RMS     Displacement     0.000616     0.001200     YES
 Predicted change in Energy=-3.633258D-07
 Optimization completed.
    -- Stationary point found.
                           ----------------------------
                           !   Optimized Parameters   !
                           ! (Angstroms and Degrees)  !
 --------------------------                            --------------------------
 ! Name  Definition              Value          Derivative Info.                !
 --------------------------------------------------------------------------------
 ! R1    R(1,2)                  1.2075         -DE/DX =   -0.0002              !
 ! R2    R(1,3)                  1.1145         -DE/DX =   -0.0003              !
 ! R3    R(1,4)                  1.1145         -DE/DX =   -0.0003              !
 ! A1    A(2,1,3)              121.8129         -DE/DX =    0.0001              !
 ! A2    A(2,1,4)              121.8129         -DE/DX =    0.0001              !
 ! A3    A(3,1,4)              116.3743         -DE/DX =   -0.0001              !
 ! D1    D(2,1,4,3)            180.0            -DE/DX =    0.0                 !
 --------------------------------------------------------------------------------
 Lowest energy point so far.  Saving SCF results.
 GradGradGradGradGradGradGradGradGradGradGradGradGradGradGradGradGradGrad

 Largest change from initial coordinates is atom    3       0.032 Angstoms.
 Leave Link  103 at Wed Sep  2 15:14:28 2015, MaxMem=    33554432 cpu:         0.0
 (Enter /group/hpc-share/gaussian/2009D/g09/l202.exe)
                          Input orientation:                          
 ---------------------------------------------------------------------
 Center     Atomic      Atomic             Coordinates (Angstroms)
 Number     Number       Type             X           Y           Z
 ---------------------------------------------------------------------
      1          6           0        0.000000    0.000000    0.024631
      2          8           0        0.000000    0.000000    1.232087
      3          1           0        0.947049    0.000000   -0.562859
      4          1           0       -0.947049    0.000000   -0.562859
 ---------------------------------------------------------------------
                    Distance matrix (angstroms):
                    1          2          3          4
     1  C    0.000000
     2  O    1.207456   0.000000
     3  H    1.114471   2.029466   0.000000
     4  H    1.114471   2.029466   1.894097   0.000000
 Stoichiometry    CH2O
 Framework group  C2V[C2(CO),SGV(H2)]
 Deg. of freedom     3
 Full point group                 C2V     NOp   4
 RotChk:  IX=0 Diff= 3.60D-15
 Largest Abelian subgroup         C2V     NOp   4
 Largest concise Abelian subgroup C2      NOp   2
                         Standard orientation:                         
 ---------------------------------------------------------------------
 Center     Atomic      Atomic             Coordinates (Angstroms)
 Number     Number       Type             X           Y           Z
 ---------------------------------------------------------------------
      1          6           0        0.000000    0.000000   -0.530292
      2          8           0        0.000000    0.000000    0.677164
      3          1           0        0.000000    0.947049   -1.117781
      4          1           0        0.000000   -0.947049   -1.117781
 ---------------------------------------------------------------------
 Rotational constants (GHZ):    279.5487557     38.6848469     33.9822719
 Leave Link  202 at Wed Sep  2 15:14:28 2015, MaxMem=    33554432 cpu:         0.0
 (Enter /group/hpc-share/gaussian/2009D/g09/l601.exe)
 Copying SCF densities to generalized density rwf, IOpCl= 0 IROHF=0.

 **********************************************************************

            Population analysis using the SCF density.

 **********************************************************************

 Orbital symmetries:
       Occupied  (A1) (A1) (A1) (A1) (B2) (A1) (B1) (B2)
       Virtual   (B1) (A1) (B2) (A1) (B1) (A1) (B2) (A1) (A1) (B2)
                 (B1) (A1) (A2) (B2) (B1) (A1) (B2) (A1) (A1) (B2)
                 (A2) (B1) (A1) (B2) (A1) (B1) (A1) (B2) (A1) (B1)
                 (B2) (A2) (A1) (A1) (A2) (B2) (B1) (A1) (B2) (B1)
                 (A1) (B2) (A1) (B1) (A1) (A2) (B2) (A1) (A1) (B2)
                 (A1) (A2) (A1) (B1) (B2) (A1)
 The electronic state is 1-A1.
 Alpha  occ. eigenvalues --  -19.17652 -10.29678  -1.07515  -0.64380  -0.50432
 Alpha  occ. eigenvalues --   -0.46355  -0.41166  -0.28060
 Alpha virt. eigenvalues --   -0.06566  -0.00955   0.01865   0.03515   0.05885
 Alpha virt. eigenvalues --    0.10214   0.10468   0.13101   0.14994   0.17161
 Alpha virt. eigenvalues --    0.18094   0.22042   0.22744   0.24939   0.32501
 Alpha virt. eigenvalues --    0.33942   0.35946   0.39742   0.43944   0.44776
 Alpha virt. eigenvalues --    0.46778   0.48250   0.48937   0.51778   0.56566
 Alpha virt. eigenvalues --    0.65155   0.68717   0.80530   0.85380   0.99532
 Alpha virt. eigenvalues --    0.99896   1.00684   1.06723   1.16780   1.26120
 Alpha virt. eigenvalues --    1.26236   1.32357   1.39719   1.53397   1.55092
 Alpha virt. eigenvalues --    1.66735   1.67151   1.78561   1.87268   1.92995
 Alpha virt. eigenvalues --    1.94161   2.06692   2.23637   2.32230   2.58712
 Alpha virt. eigenvalues --    2.94080   3.29591   3.30833   3.33969   3.48272
 Alpha virt. eigenvalues --    3.63162
          Condensed to atoms (all electrons):
               1          2          3          4
     1  C    4.325943   0.326514   0.238502   0.238502
     2  O    0.326514   8.110185  -0.044082  -0.044082
     3  H    0.238502  -0.044082   1.317374  -0.250792
     4  H    0.238502  -0.044082  -0.250792   1.317374
 Mulliken charges:
               1
     1  C    0.870539
     2  O   -0.348536
     3  H   -0.261002
     4  H   -0.261002
 Sum of Mulliken charges =   0.00000
 Mulliken charges with hydrogens summed into heavy atoms:
               1
     1  C    0.348536
     2  O   -0.348536
 Electronic spatial extent (au):  <R**2>=             61.2238
 Charge=              0.0000 electrons
 Dipole moment (field-independent basis, Debye):
    X=              0.0000    Y=              0.0000    Z=             -2.4089  Tot=              2.4089
 Quadrupole moment (field-independent basis, Debye-Ang):
   XX=            -11.7728   YY=            -11.7377   ZZ=            -12.4947
   XY=              0.0000   XZ=              0.0000   YZ=              0.0000
 Traceless Quadrupole moment (field-independent basis, Debye-Ang):
   XX=              0.2289   YY=              0.2641   ZZ=             -0.4929
   XY=              0.0000   XZ=              0.0000   YZ=              0.0000
 Octapole moment (field-independent basis, Debye-Ang**2):
  XXX=              0.0000  YYY=              0.0000  ZZZ=              0.6751  XYY=              0.0000
  XXY=              0.0000  XXZ=              0.6573  XZZ=              0.0000  YZZ=              0.0000
  YYZ=             -0.5256  XYZ=              0.0000
 Hexadecapole moment (field-independent basis, Debye-Ang**3):
 XXXX=            -10.8677 YYYY=            -19.4586 ZZZZ=            -48.2124 XXXY=              0.0000
 XXXZ=              0.0000 YYYX=              0.0000 YYYZ=              0.0000 ZZZX=              0.0000
 ZZZY=              0.0000 XXYY=             -5.3745 XXZZ=             -9.7648 YYZZ=            -11.0492
 XXYZ=              0.0000 YYXZ=              0.0000 ZZXY=              0.0000
 N-N= 3.118559753955D+01 E-N=-3.309388576214D+02  KE= 1.137709999275D+02
 Symmetry A1   KE= 1.034723307800D+02
 Symmetry A2   KE= 1.199280624387D-34
 Symmetry B1   KE= 3.642674236321D+00
 Symmetry B2   KE= 6.655994911121D+00
 No NMR shielding tensors so no spin-rotation constants.
 Leave Link  601 at Wed Sep  2 15:14:29 2015, MaxMem=    33554432 cpu:         1.4
 (Enter /group/hpc-share/gaussian/2009D/g09/l9999.exe)
 B after Tr=     0.000000    0.000000   -0.024538
         Rot=    1.000000    0.000000    0.000000    0.000000 Ang=   0.00 deg.
 Final structure in terms of initial Z-matrix:
 C
 O,1,oc2
 H,1,hc3,2,hco3
 H,1,hc4,2,hco4,3,dih4,0
      Variables:
 oc2=1.20745631
 hc3=1.11447068
 hco3=121.81286879
 hc4=1.11447068
 hco4=121.81286879
 dih4=180.
 1\1\GINC-HPC-CN12\FOpt\RB3LYP\Aug-CC-pVDZ\C1H2O1\6498IVANOVM\02-Sep-20
 15\0\\#P b3lyp/aug-cc-pvdz opt\\formaldehyde\\0,1\C,0.,0.,0.0246306757
 \O,0.,0.,1.2320869865\H,0.9470485574,0.,-0.5628588311\H,-0.9470485574,
 0.,-0.5628588311\\Version=EM64L-G09RevD.01\State=1-A1\HF=-114.520557\R
 MSD=2.536e-09\RMSF=1.531e-04\Dipole=0.,0.,-0.9477382\Quadrupole=0.1963
 175,0.1701664,-0.3664839,0.,0.,0.\PG=C02V [C2(C1O1),SGV(H2)]\\@


 THE TEST OF A FIRST RATE INTELLIGENCE IS THE ABILITY TO HOLD TWO OPPOSED
 IDEAS IN THE MIND AT THE SAME TIME, AND STILL RETAIN THE ABILITY TO FUNCTION.
 ONE SHOULD, FOR EXAMPLE, BE ABLE TO SEE THAT THINGS ARE HOPELESS AND YET BE
 DETERMINED TO MAKE THEM OTHERWISE.

                                                       -- F. SCOTT FITZGERALD
 Job cpu time:       0 days  0 hours  0 minutes 37.9 seconds.
 File lengths (MBytes):  RWF=      5 Int=      0 D2E=      0 Chk=      1 Scr=      1
 Normal termination of Gaussian 09 at Wed Sep  2 15:14:29 2015.
