 Entering Gaussian System, Link 0=g09
 Input=formaldehyde.com
 Output=formaldehyde.log
 AtFile(1): formaldehyde.zmat
             c
             o   1 oc2
             h    1 hc3         2 hco3
             h    1 hc4         2 hco4          3 dih4
            variables
            oc2         1.220000
            hc3         1.089000
            hco3        120.000
            hc4         1.089000
            hco4        120.000
            dih4        180.000
 AtFile(1): /home/MARQNET/talipovm/basis-library/def2-SV(P)+d.gbs
            !  Def2-SV(P)  EMSL  Basis Set Exchange Library   3/29/11 8:36 AM
            ! Elements                             References
            ! --------                             ----------
            ! H He Li Be B C N O F Ne Na Mg Al Si P S Cl Ar K Ca Sc Ti V Cr Mn Fe Co Ni Cu Zn Ga Ge As Se Br Kr Rb Sr Y Zr Nb Mo Tc Ru Rh Pd Ag Cd In Sn Sb Te I Xe Cs Ba La Hf Ta W Re Os Ir Pt Au Hg Tl Pb Bi Po At Rn : F. Weigend and R. Ahlrichs, Phys. Chem. Chem. Phys., Balanced basis sets of split valence, triple zeta valence and quadruple zeta valence
            ! quality for H to Rn: Design and assessment of accuracy 7, 3297 (2005).
            !
            -H     0
            S   3   1.00
                 13.0107010              0.19682158E-01
                  1.9622572              0.13796524
                  0.44453796             0.47831935
            S   1   1.00
                  0.12194962             1.0000000
            ****
            -B     0
            S   5   1.00
                839.31830086            -0.55929201074E-02
                126.26464843            -0.41565520771E-01
                 28.620600763           -0.18299816983
                  7.8793722710          -0.46540391866
                  2.4088857172          -0.44173884791
            S   1   1.00
                  0.25105109036          1.0000000
            S   1   1.00
                  0.83648866069E-01            1.0000000
            P   3   1.00
                  6.0332223619          -0.35603672456E-01
                  1.2499157866          -0.19895775769
                  0.33871676350         -0.50850202618
            P   1   1.00
                  0.96415632351E-01            1.0000000
            D   1   1.00
                  0.5000000              1.0000000
            ****
            -C     0
            S   5   1.00
               1238.4016938              0.54568832082E-02
                186.29004992             0.40638409211E-01
                 42.251176346            0.18025593888
                 11.676557932            0.46315121755
                  3.5930506482           0.44087173314
            S   1   1.00
                  0.40245147363          1.0000000
            S   1   1.00
                  0.13090182668          1.0000000
            P   3   1.00
                  9.4680970621           0.38387871728E-01
                  2.0103545142           0.21117025112
                  0.54771004707          0.51328172114
            P   1   1.00
                  0.15268613795          1.0000000
            D   1   1.00
                  0.8000000              1.0000000
            ****
            -N     0
            S   5   1.00
               1712.8415853             -0.53934125305E-02
                257.64812677            -0.40221581118E-01
                 58.458245853           -0.17931144990
                 16.198367905           -0.46376317823
                  5.0052600809          -0.44171422662
            S   1   1.00
                  0.58731856571          1.0000000
            S   1   1.00
                  0.18764592253          1.0000000
            P   3   1.00
                 13.571470233           -0.40072398852E-01
                  2.9257372874          -0.21807045028
                  0.79927750754         -0.51294466049
            P   1   1.00
                  0.21954348034          1.0000000
            D   1   1.00
                  1.0000000              1.0000000
            ****
            -O     0
            S   5   1.00
               2266.1767785             -0.53431809926E-02
                340.87010191            -0.39890039230E-01
                 77.363135167           -0.17853911985
                 21.479644940           -0.46427684959
                  6.6589433124          -0.44309745172
            S   1   1.00
                  0.80975975668          1.0000000
            S   1   1.00
                  0.25530772234          1.0000000
            P   3   1.00
                 17.721504317            0.43394573193E-01
                  3.8635505440           0.23094120765
                  1.0480920883           0.51375311064
            P   1   1.00
                  0.27641544411          1.0000000
            D   1   1.00
                  1.2000000              1.0000000
            ****
            -F     0
            S   5   1.00
               2894.8325990             -0.53408255515E-02
                435.41939120            -0.39904258866E-01
                 98.843328866           -0.17912768038
                 27.485198001           -0.46758090825
                  8.5405498171          -0.44653131020
            S   1   1.00
                  1.0654578038           1.0000000
            S   1   1.00
                  0.33247346748          1.0000000
            P   3   1.00
                 22.696633924           -0.45212874436E-01
                  4.9872339257          -0.23754317067
                  1.3491613954          -0.51287353587
            P   1   1.00
                  0.34829881977          1.0000000
            D   1   1.00
                  1.4000000              1.0000000
            ****
            -S     0
            S   5   1.00
               9184.9303010             -0.22294387756E-02
               1381.5105503             -0.16683029937E-01
                313.87147580            -0.75262436116E-01
                 88.053870623           -0.19376827038
                 27.039914905           -0.17718020803
            S   3   1.00
                 45.648731303           -0.10736062573
                  4.9664522326           0.65066293018
                  2.0116242047           0.59712155354
            S   1   1.00
                  0.35661077013          1.0000000
            S   1   1.00
                  0.13507221477          1.0000000
            P   5   1.00
                261.98233439            -0.92729929822E-02
                 61.306894736           -0.66547669241E-01
                 19.103729887           -0.24828595903
                  6.6567720378          -0.48703847402
                  2.3959635161          -0.39337850312
            P   1   1.00
                  0.61776161679          1.0000000
            P   1   1.00
                  0.16993376871          1.0000000
            D   1   1.00
                  0.5500000              1.0000000
            D   1   1.00
                  2.9940000              1.0000000
            ****
            -Cl     0
            S   5   1.00
              10449.8275660              0.19708362484E-02
               1571.7365221              0.14754727977E-01
                357.12065523             0.66679112875E-01
                100.25185935             0.17228924084
                 30.812727554            0.15883786100
            S   3   1.00
                 51.923789434           -0.10009298909
                  5.7045760975           0.60841752753
                  2.3508376809           0.54352153355
            S   1   1.00
                  0.44605124672          1.0000000
            S   1   1.00
                  0.16848856190          1.0000000
            P   5   1.00
                307.66790569            -0.87801484118E-02
                 72.102015515           -0.63563355471E-01
                 22.532680262           -0.24016428276
                  7.8991765444          -0.47798866557
                  2.8767268321          -0.38515850005
            P   1   1.00
                  0.77459363955          1.0000000
            P   1   1.00
                  0.21037699698          1.0000000
            D   1   1.00
                  0.6500000              1.0000000
            D   1   1.00
                  3.6520000              1.0000000
            ****
            -Al     0
            S   5   1.00
               5887.5727030              0.13483347987E-02
                885.61225996             0.10071576809E-01
                201.13604899             0.45132454056E-01
                 56.284974674            0.11461268043
                 17.229551243            0.10159608943
            S   3   1.00
                 29.340249922            0.69347454208E-01
                  3.0439630420          -0.42528117679
                  1.1285539518          -0.41449832210
            S   1   1.00
                  0.14234175160          1.0000000
            S   1   1.00
                  0.54400192313E-01            1.0000000
            P   5   1.00
                145.11918809             0.63963373134E-02
                 33.717894833            0.44189359965E-01
                 10.369863083            0.15581575993
                  3.5135616036           0.28635286951
                  1.1980050273           0.22921423248
            P   1   1.00
                  0.26583005913          1.0000000
            P   1   1.00
                  0.71003361994E-01            1.0000000
            D   1   1.00
                  0.3000000              1.0000000
            D   1   1.00
                  1.1950000              1.0000000
            ****
            -Ti     0
            S   6   1.00
              42961.5121850              0.39127635355E-02
               6450.9759169              0.29969820489E-01
               1467.7210915              0.14836352707
                414.20997355             0.51347285324
                134.48715840             1.0335365483
                 46.122209796            0.77854233930
            S   3   1.00
                 89.447762543           -0.28385401259
                 10.223346060            1.6772785333
                  4.1353774271           1.2411928456
            S   3   1.00
                  6.7896181452          -0.78399994518E-02
                  1.1106730691           0.25495493019E-01
                  0.47565975578          0.16061172892E-01
            S   1   1.00
                  0.65986956934E-01            1.0000000
            S   1   1.00
                  0.25210342250E-01            1.0000000
            P   5   1.00
                522.03684782             0.19754179642E-01
                122.68649489             0.14460677619
                 38.572903611            0.54669004165
                 13.672169319            1.0531647540
                  5.0118529359           0.69111213363
            P   3   1.00
                  2.4131928282           0.75803437136
                  0.93252270050          1.3036241399
                  0.35429058390          0.53638653300
            P   1   1.00
                  0.1015610              1.0000000
            D   4   1.00
                 23.465125957            0.26536380115E-01
                  6.3332593832           0.13796453963
                  2.0766489946           0.35312644228
                  0.69027361954          0.48647124166
            D   1   1.00
                  0.21088738554          1.0000000
            ****
            -P     0
            S   5   1.00
               8002.4795106              0.57503489302E-02
               1203.6813590              0.43007628959E-01
                273.44227031             0.19363986252
                 76.655541517            0.49651693399
                 23.516927435            0.44983262479
            S   3   1.00
                 39.791683439            0.95188129789E-01
                  4.2770343323          -0.57649840368
                  1.6940256888          -0.54239583865
            S   1   1.00
                  0.27567674644          1.0000000
            S   1   1.00
                  0.10495590099          1.0000000
            P   5   1.00
                219.50755823             0.92100565257E-02
                 51.274155030            0.65409765745E-01
                 15.921595892            0.24033730279
                  5.5069913481           0.46318321788
                  1.9537719426           0.37392563382
            P   1   1.00
                  0.47803397932          1.0000000
            P   1   1.00
                  0.13657952621          1.0000000
            D   1   1.00
                  0.4500000              1.0000000
            D   1   1.00
                   2.5060000              1.0000000
            ****
 Initial command:
 /group/hpc-share/gaussian/2009D/g09/l1.exe "/scratch/gaussian/g_formaldehyde.com-809493.hn1.marqnet.mu.edu/Gau-11421.inp" -scrdir="/scratch/gaussian/g_formaldehyde.com-809493.hn1.marqnet.mu.edu/"
 Entering Link 1 = /group/hpc-share/gaussian/2009D/g09/l1.exe PID=     11425.
  
 Copyright (c) 1988,1990,1992,1993,1995,1998,2003,2009,2013,
            Gaussian, Inc.  All Rights Reserved.
  
 This is part of the Gaussian(R) 09 program.  It is based on
 the Gaussian(R) 03 system (copyright 2003, Gaussian, Inc.),
 the Gaussian(R) 98 system (copyright 1998, Gaussian, Inc.),
 the Gaussian(R) 94 system (copyright 1995, Gaussian, Inc.),
 the Gaussian 92(TM) system (copyright 1992, Gaussian, Inc.),
 the Gaussian 90(TM) system (copyright 1990, Gaussian, Inc.),
 the Gaussian 88(TM) system (copyright 1988, Gaussian, Inc.),
 the Gaussian 86(TM) system (copyright 1986, Carnegie Mellon
 University), and the Gaussian 82(TM) system (copyright 1983,
 Carnegie Mellon University). Gaussian is a federally registered
 trademark of Gaussian, Inc.
  
 This software contains proprietary and confidential information,
 including trade secrets, belonging to Gaussian, Inc.
  
 This software is provided under written license and may be
 used, copied, transmitted, or stored only in accord with that
 written license.
  
 The following legend is applicable only to US Government
 contracts under FAR:
  
                    RESTRICTED RIGHTS LEGEND
  
 Use, reproduction and disclosure by the US Government is
 subject to restrictions as set forth in subparagraphs (a)
 and (c) of the Commercial Computer Software - Restricted
 Rights clause in FAR 52.227-19.
  
 Gaussian, Inc.
 340 Quinnipiac St., Bldg. 40, Wallingford CT 06492
  
  
 ---------------------------------------------------------------
 Warning -- This program may not be used in any manner that
 competes with the business of Gaussian, Inc. or will provide
 assistance to any competitor of Gaussian, Inc.  The licensee
 of this program is prohibited from giving any competitor of
 Gaussian, Inc. access to this program.  By using this program,
 the user acknowledges that Gaussian, Inc. is engaged in the
 business of creating and licensing software in the field of
 computational chemistry and represents and warrants to the
 licensee that it is not a competitor of Gaussian, Inc. and that
 it will not use this program in any manner prohibited above.
 ---------------------------------------------------------------
  

 Cite this work as:
 Gaussian 09, Revision D.01,
 M. J. Frisch, G. W. Trucks, H. B. Schlegel, G. E. Scuseria, 
 M. A. Robb, J. R. Cheeseman, G. Scalmani, V. Barone, B. Mennucci, 
 G. A. Petersson, H. Nakatsuji, M. Caricato, X. Li, H. P. Hratchian, 
 A. F. Izmaylov, J. Bloino, G. Zheng, J. L. Sonnenberg, M. Hada, 
 M. Ehara, K. Toyota, R. Fukuda, J. Hasegawa, M. Ishida, T. Nakajima, 
 Y. Honda, O. Kitao, H. Nakai, T. Vreven, J. A. Montgomery, Jr., 
 J. E. Peralta, F. Ogliaro, M. Bearpark, J. J. Heyd, E. Brothers, 
 K. N. Kudin, V. N. Staroverov, T. Keith, R. Kobayashi, J. Normand, 
 K. Raghavachari, A. Rendell, J. C. Burant, S. S. Iyengar, J. Tomasi, 
 M. Cossi, N. Rega, J. M. Millam, M. Klene, J. E. Knox, J. B. Cross, 
 V. Bakken, C. Adamo, J. Jaramillo, R. Gomperts, R. E. Stratmann, 
 O. Yazyev, A. J. Austin, R. Cammi, C. Pomelli, J. W. Ochterski, 
 R. L. Martin, K. Morokuma, V. G. Zakrzewski, G. A. Voth, 
 P. Salvador, J. J. Dannenberg, S. Dapprich, A. D. Daniels, 
 O. Farkas, J. B. Foresman, J. V. Ortiz, J. Cioslowski, 
 and D. J. Fox, Gaussian, Inc., Wallingford CT, 2013.
 
 ******************************************
 Gaussian 09:  EM64L-G09RevD.01 24-Apr-2013
                 2-Sep-2015 
 ******************************************
 %nproc=8
 Will use up to    8 processors via shared memory.
 %chk=formaldehyde.chk
 ------------------
 #P PBE1PBE/gen opt
 ------------------
 1/14=-1,18=20,19=15,26=3,38=1/1,3;
 2/9=110,12=2,17=6,18=5,40=1/2;
 3/5=7,11=2,16=1,25=1,30=1,71=1,74=-13/1,2,3;
 4//1;
 5/5=2,38=5/2;
 6/7=2,8=2,9=2,10=2,28=1/1;
 7//1,2,3,16;
 1/14=-1,18=20,19=15,26=3/3(2);
 2/9=110/2;
 99//99;
 2/9=110/2;
 3/5=7,6=1,11=2,16=1,25=1,30=1,71=1,74=-13,82=7/1,2,3;
 4/5=5,16=3,69=1/1;
 5/5=2,38=5/2;
 7//1,2,3,16;
 1/14=-1,18=20,19=15,26=3/3(-5);
 2/9=110/2;
 6/7=2,8=2,9=2,10=2,19=2,28=1/1;
 99/9=1/99;
 Leave Link    1 at Wed Sep  2 15:33:55 2015, MaxMem=           0 cpu:         0.3
 (Enter /group/hpc-share/gaussian/2009D/g09/l101.exe)
 ------------
 formaldehyde
 ------------
 Symbolic Z-matrix:
 Charge =  0 Multiplicity = 1
 c
 o                    1    oc2
 h                    1    hc3      2    hco3
 h                    1    hc4      2    hco4     3    dih4     0
       Variables:
  oc2                   1.22                     
  hc3                   1.089                    
  hco3                120.                       
  hc4                   1.089                    
  hco4                120.                       
  dih4                180.                       
 
 NAtoms=      4 NQM=        4 NQMF=       0 NMMI=      0 NMMIF=      0
                NMic=       0 NMicF=      0.
                    Isotopes and Nuclear Properties:
 (Nuclear quadrupole moments (NQMom) in fm**2, nuclear magnetic moments (NMagM)
  in nuclear magnetons)

  Atom         1           2           3           4
 IAtWgt=          12          16           1           1
 AtmWgt=  12.0000000  15.9949146   1.0078250   1.0078250
 NucSpn=           0           0           1           1
 AtZEff=   0.0000000   0.0000000   0.0000000   0.0000000
 NQMom=    0.0000000   0.0000000   0.0000000   0.0000000
 NMagM=    0.0000000   0.0000000   2.7928460   2.7928460
 AtZNuc=   6.0000000   8.0000000   1.0000000   1.0000000
 Leave Link  101 at Wed Sep  2 15:33:55 2015, MaxMem=    33554432 cpu:         1.0
 (Enter /group/hpc-share/gaussian/2009D/g09/l103.exe)

 GradGradGradGradGradGradGradGradGradGradGradGradGradGradGradGradGradGrad
 Berny optimization.
 Initialization pass.
                           ----------------------------
                           !    Initial Parameters    !
                           ! (Angstroms and Degrees)  !
 --------------------------                            --------------------------
 ! Name  Definition              Value          Derivative Info.                !
 --------------------------------------------------------------------------------
 ! R1    R(1,2)                  1.22           estimate D2E/DX2                !
 ! R2    R(1,3)                  1.089          estimate D2E/DX2                !
 ! R3    R(1,4)                  1.089          estimate D2E/DX2                !
 ! A1    A(2,1,3)              120.0            estimate D2E/DX2                !
 ! A2    A(2,1,4)              120.0            estimate D2E/DX2                !
 ! A3    A(3,1,4)              120.0            estimate D2E/DX2                !
 ! D1    D(2,1,4,3)            180.0            estimate D2E/DX2                !
 --------------------------------------------------------------------------------
 Trust Radius=3.00D-01 FncErr=1.00D-07 GrdErr=1.00D-06
 Number of steps in this run=     20 maximum allowed number of steps=    100.
 GradGradGradGradGradGradGradGradGradGradGradGradGradGradGradGradGradGrad

 Leave Link  103 at Wed Sep  2 15:33:55 2015, MaxMem=    33554432 cpu:         0.1
 (Enter /group/hpc-share/gaussian/2009D/g09/l202.exe)
                          Input orientation:                          
 ---------------------------------------------------------------------
 Center     Atomic      Atomic             Coordinates (Angstroms)
 Number     Number       Type             X           Y           Z
 ---------------------------------------------------------------------
      1          6           0        0.000000    0.000000    0.000000
      2          8           0        0.000000    0.000000    1.220000
      3          1           0        0.943102    0.000000   -0.544500
      4          1           0       -0.943102    0.000000   -0.544500
 ---------------------------------------------------------------------
                    Distance matrix (angstroms):
                    1          2          3          4
     1  C    0.000000
     2  O    1.220000   0.000000
     3  H    1.089000   2.000725   0.000000
     4  H    1.089000   2.000725   1.886203   0.000000
 Stoichiometry    CH2O
 Framework group  C2V[C2(CO),SGV(H2)]
 Deg. of freedom     3
 Full point group                 C2V     NOp   4
 Largest Abelian subgroup         C2V     NOp   4
 Largest concise Abelian subgroup C2      NOp   2
                         Standard orientation:                         
 ---------------------------------------------------------------------
 Center     Atomic      Atomic             Coordinates (Angstroms)
 Number     Number       Type             X           Y           Z
 ---------------------------------------------------------------------
      1          6           0        0.000000    0.000000   -0.541938
      2          8           0        0.000000    0.000000    0.678063
      3          1           0        0.000000    0.943102   -1.086438
      4          1           0        0.000000   -0.943102   -1.086438
 ---------------------------------------------------------------------
 Rotational constants (GHZ):    281.8934821     38.5694058     33.9273735
 Leave Link  202 at Wed Sep  2 15:33:55 2015, MaxMem=    33554432 cpu:         0.0
 (Enter /group/hpc-share/gaussian/2009D/g09/l301.exe)
 General basis read from cards:  (5D, 7F)
 Centers:       3      4
 S 3 1.00
     Exponent=  1.3010701000D+01 Coefficients=  1.9682158000D-02
     Exponent=  1.9622572000D+00 Coefficients=  1.3796524000D-01
     Exponent=  4.4453796000D-01 Coefficients=  4.7831935000D-01
 S 1 1.00
     Exponent=  1.2194962000D-01 Coefficients=  1.0000000000D+00
 ****
 Centers:       1
 S 5 1.00
     Exponent=  1.2384016938D+03 Coefficients=  5.4568832082D-03
     Exponent=  1.8629004992D+02 Coefficients=  4.0638409211D-02
     Exponent=  4.2251176346D+01 Coefficients=  1.8025593888D-01
     Exponent=  1.1676557932D+01 Coefficients=  4.6315121755D-01
     Exponent=  3.5930506482D+00 Coefficients=  4.4087173314D-01
 S 1 1.00
     Exponent=  4.0245147363D-01 Coefficients=  1.0000000000D+00
 S 1 1.00
     Exponent=  1.3090182668D-01 Coefficients=  1.0000000000D+00
 P 3 1.00
     Exponent=  9.4680970621D+00 Coefficients=  3.8387871728D-02
     Exponent=  2.0103545142D+00 Coefficients=  2.1117025112D-01
     Exponent=  5.4771004707D-01 Coefficients=  5.1328172114D-01
 P 1 1.00
     Exponent=  1.5268613795D-01 Coefficients=  1.0000000000D+00
 D 1 1.00
     Exponent=  8.0000000000D-01 Coefficients=  1.0000000000D+00
 ****
 Centers:       2
 S 5 1.00
     Exponent=  2.2661767785D+03 Coefficients= -5.3431809926D-03
     Exponent=  3.4087010191D+02 Coefficients= -3.9890039230D-02
     Exponent=  7.7363135167D+01 Coefficients= -1.7853911985D-01
     Exponent=  2.1479644940D+01 Coefficients= -4.6427684959D-01
     Exponent=  6.6589433124D+00 Coefficients= -4.4309745172D-01
 S 1 1.00
     Exponent=  8.0975975668D-01 Coefficients=  1.0000000000D+00
 S 1 1.00
     Exponent=  2.5530772234D-01 Coefficients=  1.0000000000D+00
 P 3 1.00
     Exponent=  1.7721504317D+01 Coefficients=  4.3394573193D-02
     Exponent=  3.8635505440D+00 Coefficients=  2.3094120765D-01
     Exponent=  1.0480920883D+00 Coefficients=  5.1375311064D-01
 P 1 1.00
     Exponent=  2.7641544411D-01 Coefficients=  1.0000000000D+00
 D 1 1.00
     Exponent=  1.2000000000D+00 Coefficients=  1.0000000000D+00
 ****
 Ernie: Thresh=  0.10000D-02 Tol=  0.10000D-05 Strict=F.
 There are    18 symmetry adapted cartesian basis functions of A1  symmetry.
 There are     2 symmetry adapted cartesian basis functions of A2  symmetry.
 There are     6 symmetry adapted cartesian basis functions of B1  symmetry.
 There are     8 symmetry adapted cartesian basis functions of B2  symmetry.
 There are    16 symmetry adapted basis functions of A1  symmetry.
 There are     2 symmetry adapted basis functions of A2  symmetry.
 There are     6 symmetry adapted basis functions of B1  symmetry.
 There are     8 symmetry adapted basis functions of B2  symmetry.
    32 basis functions,    58 primitive gaussians,    34 cartesian basis functions
     8 alpha electrons        8 beta electrons
       nuclear repulsion energy        31.1636755878 Hartrees.
 IExCor= 1009 DFT=T Ex+Corr=PBE1PBE ExCW=0 ScaHFX=  0.250000
 ScaDFX=  0.750000  0.750000  1.000000  1.000000 ScalE2=  1.000000  1.000000
 IRadAn=      0 IRanWt=     -1 IRanGd=            0 ICorTp=0 IEmpDi=  4
 NAtoms=    4 NActive=    4 NUniq=    3 SFac= 1.78D+00 NAtFMM=   60 NAOKFM=F Big=F
 Integral buffers will be    131072 words long.
 Raffenetti 2 integral format.
 Two-electron integral symmetry is turned on.
 Leave Link  301 at Wed Sep  2 15:33:55 2015, MaxMem=    33554432 cpu:         1.7
 (Enter /group/hpc-share/gaussian/2009D/g09/l302.exe)
 NPDir=0 NMtPBC=     1 NCelOv=     1 NCel=       1 NClECP=     1 NCelD=      1
         NCelK=      1 NCelE2=     1 NClLst=     1 CellRange=     0.0.
 One-electron integrals computed using PRISM.
 One-electron integral symmetry used in STVInt
 NBasis=    32 RedAO= T EigKep=  3.59D-02  NBF=    16     2     6     8
 NBsUse=    32 1.00D-06 EigRej= -1.00D+00 NBFU=    16     2     6     8
 Precomputing XC quadrature grid using
 IXCGrd= 4 IRadAn=           0 IRanWt=          -1 IRanGd=           0 AccXCQ= 0.00D+00.
 Generated NRdTot=       0 NPtTot=           0 NUsed=           0 NTot=          32
 NSgBfM=    34    34    34    34    34 MxSgAt=     4 MxSgA2=     4.
 Leave Link  302 at Wed Sep  2 15:33:56 2015, MaxMem=    33554432 cpu:         1.3
 (Enter /group/hpc-share/gaussian/2009D/g09/l303.exe)
 DipDrv:  MaxL=1.
 Leave Link  303 at Wed Sep  2 15:33:56 2015, MaxMem=    33554432 cpu:         0.1
 (Enter /group/hpc-share/gaussian/2009D/g09/l401.exe)
 ExpMin= 1.22D-01 ExpMax= 2.27D+03 ExpMxC= 3.41D+02 IAcc=1 IRadAn=         1 AccDes= 0.00D+00
 Harris functional with IExCor= 1009 and IRadAn=       1 diagonalized for initial guess.
 HarFok:  IExCor= 1009 AccDes= 0.00D+00 IRadAn=         1 IDoV= 1 UseB2=F ITyADJ=14
 ICtDFT=  3500011 ScaDFX=  1.000000  1.000000  1.000000  1.000000
 FoFCou: FMM=F IPFlag=           0 FMFlag=      100000 FMFlg1=           0
         NFxFlg=           0 DoJE=T BraDBF=F KetDBF=T FulRan=T
         wScrn=  0.000000 ICntrl=     500 IOpCl=  0 I1Cent=   200000004 NGrid=           0
         NMat0=    1 NMatS0=      1 NMatT0=    0 NMatD0=    1 NMtDS0=    0 NMtDT0=    0
 Petite list used in FoFCou.
 Harris En= -114.304414651848    
 JPrj=0 DoOrth=F DoCkMO=F.
 Initial guess orbital symmetries:
       Occupied  (A1) (A1) (A1) (A1) (B2) (A1) (B1) (B2)
       Virtual   (B1) (A1) (B2) (A1) (A1) (B1) (B2) (A1) (B2) (A1)
                 (A1) (B1) (B2) (A1) (A2) (B1) (B2) (A1) (A1) (A2)
                 (A1) (B1) (B2) (A1)
 The electronic state of the initial guess is 1-A1.
 Leave Link  401 at Wed Sep  2 15:33:56 2015, MaxMem=    33554432 cpu:         1.0
 (Enter /group/hpc-share/gaussian/2009D/g09/l502.exe)
 Closed shell SCF:
 Using DIIS extrapolation, IDIIS=  1040.
 Integral symmetry usage will be decided dynamically.
 Keep R1 ints in memory in symmetry-blocked form, NReq=1024632.
 IVT=       22642 IEndB=       22642 NGot=    33554432 MDV=    33490935
 LenX=    33490935 LenY=    33489338
 Requested convergence on RMS density matrix=1.00D-08 within 128 cycles.
 Requested convergence on MAX density matrix=1.00D-06.
 Requested convergence on             energy=1.00D-06.
 No special actions if energy rises.
 FoFCou: FMM=F IPFlag=           0 FMFlag=           0 FMFlg1=           0
         NFxFlg=           0 DoJE=F BraDBF=F KetDBF=F FulRan=T
         wScrn=  0.000000 ICntrl=     600 IOpCl=  0 I1Cent=           0 NGrid=           0
         NMat0=    1 NMatS0=    528 NMatT0=    0 NMatD0=    1 NMtDS0=    0 NMtDT0=    0
 Petite list used in FoFCou.
 Integral accuracy reduced to 1.0D-05 until final iterations.

 Cycle   1  Pass 0  IDiag  1:
 E= -114.236684935846    
 DIIS: error= 3.84D-02 at cycle   1 NSaved=   1.
 NSaved= 1 IEnMin= 1 EnMin= -114.236684935846     IErMin= 1 ErrMin= 3.84D-02
 ErrMax= 3.84D-02  0.00D+00 EMaxC= 1.00D-01 BMatC= 4.76D-02 BMatP= 4.76D-02
 IDIUse=3 WtCom= 6.16D-01 WtEn= 3.84D-01
 Coeff-Com:  0.100D+01
 Coeff-En:   0.100D+01
 Coeff:      0.100D+01
 Gap=     0.195 Goal=   None    Shift=    0.000
 GapD=    0.195 DampG=1.000 DampE=0.500 DampFc=0.5000 IDamp=-1.
 Damping current iteration by 5.00D-01
 RMSDP=1.57D-02 MaxDP=1.51D-01              OVMax= 2.40D-01

 Cycle   2  Pass 0  IDiag  1:
 E= -114.240939221199     Delta-E=       -0.004254285352 Rises=F Damp=T
 DIIS: error= 1.81D-02 at cycle   2 NSaved=   2.
 NSaved= 2 IEnMin= 2 EnMin= -114.240939221199     IErMin= 2 ErrMin= 1.81D-02
 ErrMax= 1.81D-02  0.00D+00 EMaxC= 1.00D-01 BMatC= 1.20D-02 BMatP= 4.76D-02
 IDIUse=3 WtCom= 8.19D-01 WtEn= 1.81D-01
 Coeff-Com:  0.306D+00 0.694D+00
 Coeff-En:   0.455D+00 0.545D+00
 Coeff:      0.333D+00 0.667D+00
 Gap=     0.239 Goal=   None    Shift=    0.000
 RMSDP=3.47D-03 MaxDP=3.09D-02 DE=-4.25D-03 OVMax= 1.69D-01

 Cycle   3  Pass 0  IDiag  1:
 E= -114.275480027115     Delta-E=       -0.034540805917 Rises=F Damp=F
 DIIS: error= 7.30D-03 at cycle   3 NSaved=   3.
 NSaved= 3 IEnMin= 3 EnMin= -114.275480027115     IErMin= 3 ErrMin= 7.30D-03
 ErrMax= 7.30D-03  0.00D+00 EMaxC= 1.00D-01 BMatC= 1.59D-03 BMatP= 1.20D-02
 IDIUse=3 WtCom= 9.27D-01 WtEn= 7.30D-02
 Coeff-Com:  0.973D-01 0.281D+00 0.622D+00
 Coeff-En:   0.000D+00 0.000D+00 0.100D+01
 Coeff:      0.902D-01 0.261D+00 0.649D+00
 Gap=     0.238 Goal=   None    Shift=    0.000
 RMSDP=1.40D-03 MaxDP=1.90D-02 DE=-3.45D-02 OVMax= 1.91D-02

 Cycle   4  Pass 0  IDiag  1:
 E= -114.277015679267     Delta-E=       -0.001535652152 Rises=F Damp=F
 DIIS: error= 2.16D-03 at cycle   4 NSaved=   4.
 NSaved= 4 IEnMin= 4 EnMin= -114.277015679267     IErMin= 4 ErrMin= 2.16D-03
 ErrMax= 2.16D-03  0.00D+00 EMaxC= 1.00D-01 BMatC= 1.38D-04 BMatP= 1.59D-03
 IDIUse=3 WtCom= 9.78D-01 WtEn= 2.16D-02
 Coeff-Com:  0.910D-02-0.424D-02 0.211D+00 0.785D+00
 Coeff-En:   0.000D+00 0.000D+00 0.000D+00 0.100D+01
 Coeff:      0.890D-02-0.414D-02 0.206D+00 0.789D+00
 Gap=     0.241 Goal=   None    Shift=    0.000
 RMSDP=2.79D-04 MaxDP=3.94D-03 DE=-1.54D-03 OVMax= 3.37D-03

 Cycle   5  Pass 0  IDiag  1:
 E= -114.277138737470     Delta-E=       -0.000123058203 Rises=F Damp=F
 DIIS: error= 2.12D-04 at cycle   5 NSaved=   5.
 NSaved= 5 IEnMin= 5 EnMin= -114.277138737470     IErMin= 5 ErrMin= 2.12D-04
 ErrMax= 2.12D-04  0.00D+00 EMaxC= 1.00D-01 BMatC= 1.28D-06 BMatP= 1.38D-04
 IDIUse=3 WtCom= 9.98D-01 WtEn= 2.12D-03
 Coeff-Com:  0.224D-02-0.823D-02 0.344D-01 0.154D+00 0.817D+00
 Coeff-En:   0.000D+00 0.000D+00 0.000D+00 0.000D+00 0.100D+01
 Coeff:      0.224D-02-0.821D-02 0.343D-01 0.154D+00 0.818D+00
 Gap=     0.241 Goal=   None    Shift=    0.000
 RMSDP=3.36D-05 MaxDP=2.53D-04 DE=-1.23D-04 OVMax= 2.83D-04

 Cycle   6  Pass 0  IDiag  1:
 E= -114.277139764697     Delta-E=       -0.000001027227 Rises=F Damp=F
 DIIS: error= 3.94D-05 at cycle   6 NSaved=   6.
 NSaved= 6 IEnMin= 6 EnMin= -114.277139764697     IErMin= 6 ErrMin= 3.94D-05
 ErrMax= 3.94D-05  0.00D+00 EMaxC= 1.00D-01 BMatC= 5.11D-08 BMatP= 1.28D-06
 IDIUse=1 WtCom= 1.00D+00 WtEn= 0.00D+00
 Coeff-Com:  0.280D-03-0.618D-03-0.229D-02-0.153D-01-0.490D-01 0.107D+01
 Coeff:      0.280D-03-0.618D-03-0.229D-02-0.153D-01-0.490D-01 0.107D+01
 Gap=     0.241 Goal=   None    Shift=    0.000
 RMSDP=8.54D-06 MaxDP=6.99D-05 DE=-1.03D-06 OVMax= 7.33D-05

 Initial convergence to 1.0D-05 achieved.  Increase integral accuracy.
 Cycle   7  Pass 1  IDiag  1:
 E= -114.277140510622     Delta-E=       -0.000000745925 Rises=F Damp=F
 DIIS: error= 6.31D-06 at cycle   1 NSaved=   1.
 NSaved= 1 IEnMin= 1 EnMin= -114.277140510622     IErMin= 1 ErrMin= 6.31D-06
 ErrMax= 6.31D-06  0.00D+00 EMaxC= 1.00D-01 BMatC= 6.37D-10 BMatP= 6.37D-10
 IDIUse=1 WtCom= 1.00D+00 WtEn= 0.00D+00
 Coeff-Com:  0.100D+01
 Coeff:      0.100D+01
 Gap=     0.241 Goal=   None    Shift=    0.000
 RMSDP=8.54D-06 MaxDP=6.99D-05 DE=-7.46D-07 OVMax= 2.40D-05

 Cycle   8  Pass 1  IDiag  1:
 E= -114.277140511660     Delta-E=       -0.000000001038 Rises=F Damp=F
 DIIS: error= 3.30D-06 at cycle   2 NSaved=   2.
 NSaved= 2 IEnMin= 2 EnMin= -114.277140511660     IErMin= 2 ErrMin= 3.30D-06
 ErrMax= 3.30D-06  0.00D+00 EMaxC= 1.00D-01 BMatC= 2.34D-10 BMatP= 6.37D-10
 IDIUse=1 WtCom= 1.00D+00 WtEn= 0.00D+00
 Coeff-Com:  0.283D+00 0.717D+00
 Coeff:      0.283D+00 0.717D+00
 Gap=     0.241 Goal=   None    Shift=    0.000
 RMSDP=6.86D-07 MaxDP=7.79D-06 DE=-1.04D-09 OVMax= 1.45D-05

 Cycle   9  Pass 1  IDiag  1:
 E= -114.277140511589     Delta-E=        0.000000000071 Rises=F Damp=F
 DIIS: error= 3.90D-06 at cycle   3 NSaved=   3.
 NSaved= 3 IEnMin= 2 EnMin= -114.277140511660     IErMin= 2 ErrMin= 3.30D-06
 ErrMax= 3.90D-06  0.00D+00 EMaxC= 1.00D-01 BMatC= 3.48D-10 BMatP= 2.34D-10
 IDIUse=1 WtCom= 1.00D+00 WtEn= 0.00D+00
 Coeff-Com: -0.379D-01 0.567D+00 0.471D+00
 Coeff:     -0.379D-01 0.567D+00 0.471D+00
 Gap=     0.241 Goal=   None    Shift=    0.000
 RMSDP=3.84D-07 MaxDP=4.37D-06 DE= 7.10D-11 OVMax= 7.59D-06

 Cycle  10  Pass 1  IDiag  1:
 E= -114.277140511861     Delta-E=       -0.000000000272 Rises=F Damp=F
 DIIS: error= 2.13D-07 at cycle   4 NSaved=   4.
 NSaved= 4 IEnMin= 4 EnMin= -114.277140511861     IErMin= 4 ErrMin= 2.13D-07
 ErrMax= 2.13D-07  0.00D+00 EMaxC= 1.00D-01 BMatC= 1.16D-12 BMatP= 2.34D-10
 IDIUse=1 WtCom= 1.00D+00 WtEn= 0.00D+00
 Coeff-Com: -0.216D-01 0.181D+00 0.141D+00 0.700D+00
 Coeff:     -0.216D-01 0.181D+00 0.141D+00 0.700D+00
 Gap=     0.241 Goal=   None    Shift=    0.000
 RMSDP=4.14D-08 MaxDP=4.61D-07 DE=-2.72D-10 OVMax= 3.73D-07

 Cycle  11  Pass 1  IDiag  1:
 E= -114.277140511862     Delta-E=       -0.000000000001 Rises=F Damp=F
 DIIS: error= 4.57D-08 at cycle   5 NSaved=   5.
 NSaved= 5 IEnMin= 5 EnMin= -114.277140511862     IErMin= 5 ErrMin= 4.57D-08
 ErrMax= 4.57D-08  0.00D+00 EMaxC= 1.00D-01 BMatC= 9.63D-14 BMatP= 1.16D-12
 IDIUse=1 WtCom= 1.00D+00 WtEn= 0.00D+00
 Coeff-Com: -0.395D-02 0.257D-01 0.111D-01 0.227D+00 0.740D+00
 Coeff:     -0.395D-02 0.257D-01 0.111D-01 0.227D+00 0.740D+00
 Gap=     0.241 Goal=   None    Shift=    0.000
 RMSDP=8.49D-09 MaxDP=6.76D-08 DE=-9.66D-13 OVMax= 9.27D-08

 SCF Done:  E(RPBE1PBE) =  -114.277140512     A.U. after   11 cycles
            NFock= 11  Conv=0.85D-08     -V/T= 2.0069
 KE= 1.134964011380D+02 PE=-3.306184368847D+02 EE= 7.168121964702D+01
 Leave Link  502 at Wed Sep  2 15:33:56 2015, MaxMem=    33554432 cpu:         1.6
 (Enter /group/hpc-share/gaussian/2009D/g09/l601.exe)
 Copying SCF densities to generalized density rwf, IOpCl= 0 IROHF=0.

 **********************************************************************

            Population analysis using the SCF density.

 **********************************************************************

 Orbital symmetries:
       Occupied  (A1) (A1) (A1) (A1) (B2) (A1) (B1) (B2)
       Virtual   (B1) (A1) (B2) (A1) (A1) (B1) (B2) (A1) (B2) (A1)
                 (A1) (B1) (B2) (A1) (A2) (B1) (A1) (B2) (A1) (A2)
                 (A1) (B1) (B2) (A1)
 The electronic state is 1-A1.
 Alpha  occ. eigenvalues --  -19.22428 -10.32353  -1.06742  -0.65098  -0.51851
 Alpha  occ. eigenvalues --   -0.45916  -0.40968  -0.28117
 Alpha virt. eigenvalues --   -0.03999   0.08660   0.14739   0.20990   0.43962
 Alpha virt. eigenvalues --    0.47672   0.59328   0.62892   0.67827   0.68044
 Alpha virt. eigenvalues --    0.92222   1.02059   1.12778   1.31203   1.58875
 Alpha virt. eigenvalues --    1.63520   1.91620   1.94826   2.25748   2.66266
 Alpha virt. eigenvalues --    2.68533   3.10474   3.14466   3.55173
          Condensed to atoms (all electrons):
               1          2          3          4
     1  C    4.690332   0.600711   0.351666   0.351666
     2  O    0.600711   7.737864  -0.049992  -0.049992
     3  H    0.351666  -0.049992   0.671451  -0.089608
     4  H    0.351666  -0.049992  -0.089608   0.671451
 Mulliken charges:
               1
     1  C    0.005625
     2  O   -0.238591
     3  H    0.116483
     4  H    0.116483
 Sum of Mulliken charges =   0.00000
 Mulliken charges with hydrogens summed into heavy atoms:
               1
     1  C    0.238591
     2  O   -0.238591
 Electronic spatial extent (au):  <R**2>=             60.0772
 Charge=              0.0000 electrons
 Dipole moment (field-independent basis, Debye):
    X=              0.0000    Y=              0.0000    Z=             -2.3094  Tot=              2.3094
 Quadrupole moment (field-independent basis, Debye-Ang):
   XX=            -11.4258   YY=            -11.3626   ZZ=            -12.0033
   XY=              0.0000   XZ=              0.0000   YZ=              0.0000
 Traceless Quadrupole moment (field-independent basis, Debye-Ang):
   XX=              0.1715   YY=              0.2346   ZZ=             -0.4061
   XY=              0.0000   XZ=              0.0000   YZ=              0.0000
 Octapole moment (field-independent basis, Debye-Ang**2):
  XXX=              0.0000  YYY=              0.0000  ZZZ=              0.9728  XYY=              0.0000
  XXY=              0.0000  XXZ=              0.8429  XZZ=              0.0000  YZZ=              0.0000
  YYZ=             -0.1309  XYZ=              0.0000
 Hexadecapole moment (field-independent basis, Debye-Ang**3):
 XXXX=             -9.4040 YYYY=            -17.3738 ZZZZ=            -43.8368 XXXY=              0.0000
 XXXZ=              0.0000 YYYX=              0.0000 YYYZ=              0.0000 ZZZX=              0.0000
 ZZZY=              0.0000 XXYY=             -4.6889 XXZZ=             -8.7933 YYZZ=             -9.8903
 XXYZ=              0.0000 YYXZ=              0.0000 ZZXY=              0.0000
 N-N= 3.116367558783D+01 E-N=-3.306184393263D+02  KE= 1.134964011380D+02
 Symmetry A1   KE= 1.031185202318D+02
 Symmetry A2   KE= 5.845793329836D-35
 Symmetry B1   KE= 3.605079223425D+00
 Symmetry B2   KE= 6.772801682757D+00
 No NMR shielding tensors so no spin-rotation constants.
 Leave Link  601 at Wed Sep  2 15:33:57 2015, MaxMem=    33554432 cpu:         1.5
 (Enter /group/hpc-share/gaussian/2009D/g09/l701.exe)
 Compute integral first derivatives.
 ... and contract with generalized density number  0.
 Leave Link  701 at Wed Sep  2 15:33:57 2015, MaxMem=    33554432 cpu:         1.5
 (Enter /group/hpc-share/gaussian/2009D/g09/l702.exe)
 L702 exits ... SP integral derivatives will be done elsewhere.
 Leave Link  702 at Wed Sep  2 15:33:57 2015, MaxMem=    33554432 cpu:         0.3
 (Enter /group/hpc-share/gaussian/2009D/g09/l703.exe)
 Compute integral first derivatives, UseDBF=F ICtDFT=           0.
 Integral derivatives from FoFJK, PRISM(SPDF).
 Calling FoFJK, ICntrl=      2127 FMM=F ISym2X=1 I1Cent= 0 IOpClX= 0 NMat=1 NMatS=1 NMatT=0.
 FoFJK:  IHMeth= 1 ICntrl=    2127 DoSepK=F KAlg= 0 I1Cent=   0 FoldK=F
 IRaf=         0 NMat=   1 IRICut=       1 DoRegI=T DoRafI=F ISym2E= 1.
 FoFCou: FMM=F IPFlag=           0 FMFlag=      100000 FMFlg1=         800
         NFxFlg=           0 DoJE=F BraDBF=F KetDBF=F FulRan=T
         wScrn=  0.000000 ICntrl=    2127 IOpCl=  0 I1Cent=           0 NGrid=           0
         NMat0=    1 NMatS0=      1 NMatT0=    0 NMatD0=    1 NMtDS0=    0 NMtDT0=    0
 Petite list used in FoFCou.
 Leave Link  703 at Wed Sep  2 15:33:58 2015, MaxMem=    33554432 cpu:         1.6
 (Enter /group/hpc-share/gaussian/2009D/g09/l716.exe)
 Dipole        =-1.57045834D-17-2.22044605D-16-9.08568573D-01
 ***** Axes restored to original set *****
 -------------------------------------------------------------------
 Center     Atomic                   Forces (Hartrees/Bohr)
 Number     Number              X              Y              Z
 -------------------------------------------------------------------
      1        6           0.000000000    0.000000000    0.061058371
      2        8           0.000000000    0.000000000   -0.032194140
      3        1           0.013041965    0.000000000   -0.014432116
      4        1          -0.013041965    0.000000000   -0.014432116
 -------------------------------------------------------------------
 Cartesian Forces:  Max     0.061058371 RMS     0.021450223
 Leave Link  716 at Wed Sep  2 15:33:58 2015, MaxMem=    33554432 cpu:         0.2
 (Enter /group/hpc-share/gaussian/2009D/g09/l103.exe)

 GradGradGradGradGradGradGradGradGradGradGradGradGradGradGradGradGradGrad
 Berny optimization.
 FormGI is forming the generalized inverse of G from B-inverse, IUseBI=4.
 Internal  Forces:  Max     0.032194140 RMS     0.016136203
 Search for a local minimum.
 Step number   1 out of a maximum of   20
 All quantities printed in internal units (Hartrees-Bohrs-Radians)
 RMS Force = .16136D-01 SwitMx=.10000D-02 MixMth= 1
 Mixed Optimization -- RFO/linear search
 Second derivative matrix not updated -- first step.
 The second derivative matrix:
                          R1        R2        R3        A1        A2
           R1           0.95383
           R2           0.00000   0.34928
           R3           0.00000   0.00000   0.34928
           A1           0.00000   0.00000   0.00000   0.16000
           A2           0.00000   0.00000   0.00000   0.00000   0.16000
           A3           0.00000   0.00000   0.00000   0.00000   0.00000
           D1           0.00000   0.00000   0.00000   0.00000   0.00000
                          A3        D1
           A3           0.16000
           D1           0.00000   0.00248
 ITU=  0
     Eigenvalues ---    0.00248   0.16000   0.16000   0.34928   0.34928
     Eigenvalues ---    0.95383
 RFO step:  Lambda=-3.64074334D-03 EMin= 2.48058143D-03
 Linear search not attempted -- first point.
 Iteration  1 RMS(Cart)=  0.02467016 RMS(Int)=  0.00067157
 Iteration  2 RMS(Cart)=  0.00072305 RMS(Int)=  0.00000028
 Iteration  3 RMS(Cart)=  0.00000022 RMS(Int)=  0.00000000
 ITry= 1 IFail=0 DXMaxC= 4.42D-02 DCOld= 1.00D+10 DXMaxT= 3.00D-01 DXLimC= 3.00D+00 Rises=F
 ClnCor:  largest displacement from symmetrization is 2.25D-10 for atom     1.
 Variable       Old X    -DE/DX   Delta X   Delta X   Delta X     New X
                                 (Linear)    (Quad)   (Total)
    R1        2.30547  -0.03219   0.00000  -0.03362  -0.03362   2.27184
    R2        2.05791   0.01851   0.00000   0.05245   0.05245   2.11036
    R3        2.05791   0.01851   0.00000   0.05245   0.05245   2.11036
    A1        2.09440   0.00410   0.00000   0.02506   0.02506   2.11945
    A2        2.09440   0.00410   0.00000   0.02506   0.02506   2.11945
    A3        2.09440  -0.00820   0.00000  -0.05012  -0.05012   2.04428
    D1        3.14159   0.00000   0.00000   0.00000   0.00000   3.14159
         Item               Value     Threshold  Converged?
 Maximum Force            0.032194     0.000450     NO 
 RMS     Force            0.016136     0.000300     NO 
 Maximum Displacement     0.044248     0.001800     NO 
 RMS     Displacement     0.024653     0.001200     NO 
 Predicted change in Energy=-1.839301D-03
 Lowest energy point so far.  Saving SCF results.
 GradGradGradGradGradGradGradGradGradGradGradGradGradGradGradGradGradGrad

 Leave Link  103 at Wed Sep  2 15:33:58 2015, MaxMem=    33554432 cpu:         0.0
 (Enter /group/hpc-share/gaussian/2009D/g09/l202.exe)
                          Input orientation:                          
 ---------------------------------------------------------------------
 Center     Atomic      Atomic             Coordinates (Angstroms)
 Number     Number       Type             X           Y           Z
 ---------------------------------------------------------------------
      1          6           0        0.000000    0.000000    0.023415
      2          8           0        0.000000    0.000000    1.225622
      3          1           0        0.952844    0.000000   -0.559019
      4          1           0       -0.952844    0.000000   -0.559019
 ---------------------------------------------------------------------
                    Distance matrix (angstroms):
                    1          2          3          4
     1  C    0.000000
     2  O    1.202207   0.000000
     3  H    1.116755   2.023081   0.000000
     4  H    1.116755   2.023081   1.905689   0.000000
 Stoichiometry    CH2O
 Framework group  C2V[C2(CO),SGV(H2)]
 Deg. of freedom     3
 Full point group                 C2V     NOp   4
 RotChk:  IX=0 Diff= 1.40D-15
 Largest Abelian subgroup         C2V     NOp   4
 Largest concise Abelian subgroup C2      NOp   2
                         Standard orientation:                         
 ---------------------------------------------------------------------
 Center     Atomic      Atomic             Coordinates (Angstroms)
 Number     Number       Type             X           Y           Z
 ---------------------------------------------------------------------
      1          6           0        0.000000    0.000000   -0.528299
      2          8           0        0.000000    0.000000    0.673908
      3          1           0        0.000000    0.952844   -1.110733
      4          1           0        0.000000   -0.952844   -1.110733
 ---------------------------------------------------------------------
 Rotational constants (GHZ):    276.1582612     39.0594645     34.2195026
 Leave Link  202 at Wed Sep  2 15:33:59 2015, MaxMem=    33554432 cpu:         0.2
 (Enter /group/hpc-share/gaussian/2009D/g09/l301.exe)
 Basis read from rwf:  (5D, 7F)
 No pseudopotential information found on rwf file.
 There are    18 symmetry adapted cartesian basis functions of A1  symmetry.
 There are     2 symmetry adapted cartesian basis functions of A2  symmetry.
 There are     6 symmetry adapted cartesian basis functions of B1  symmetry.
 There are     8 symmetry adapted cartesian basis functions of B2  symmetry.
 There are    16 symmetry adapted basis functions of A1  symmetry.
 There are     2 symmetry adapted basis functions of A2  symmetry.
 There are     6 symmetry adapted basis functions of B1  symmetry.
 There are     8 symmetry adapted basis functions of B2  symmetry.
    32 basis functions,    58 primitive gaussians,    34 cartesian basis functions
     8 alpha electrons        8 beta electrons
       nuclear repulsion energy        31.2772647799 Hartrees.
 IExCor= 1009 DFT=T Ex+Corr=PBE1PBE ExCW=0 ScaHFX=  0.250000
 ScaDFX=  0.750000  0.750000  1.000000  1.000000 ScalE2=  1.000000  1.000000
 IRadAn=      0 IRanWt=     -1 IRanGd=            0 ICorTp=0 IEmpDi=  4
 NAtoms=    4 NActive=    4 NUniq=    3 SFac= 1.78D+00 NAtFMM=   60 NAOKFM=F Big=F
 Integral buffers will be    131072 words long.
 Raffenetti 2 integral format.
 Two-electron integral symmetry is turned on.
 No density basis found on file   724.
 Leave Link  301 at Wed Sep  2 15:33:59 2015, MaxMem=    33554432 cpu:         0.4
 (Enter /group/hpc-share/gaussian/2009D/g09/l302.exe)
 NPDir=0 NMtPBC=     1 NCelOv=     1 NCel=       1 NClECP=     1 NCelD=      1
         NCelK=      1 NCelE2=     1 NClLst=     1 CellRange=     0.0.
 One-electron integrals computed using PRISM.
 One-electron integral symmetry used in STVInt
 NBasis=    32 RedAO= T EigKep=  3.73D-02  NBF=    16     2     6     8
 NBsUse=    32 1.00D-06 EigRej= -1.00D+00 NBFU=    16     2     6     8
 Precomputing XC quadrature grid using
 IXCGrd= 4 IRadAn=           0 IRanWt=          -1 IRanGd=           0 AccXCQ= 0.00D+00.
 Generated NRdTot=       0 NPtTot=           0 NUsed=           0 NTot=          32
 NSgBfM=    34    34    34    34    34 MxSgAt=     4 MxSgA2=     4.
 Leave Link  302 at Wed Sep  2 15:33:59 2015, MaxMem=    33554432 cpu:         1.4
 (Enter /group/hpc-share/gaussian/2009D/g09/l303.exe)
 DipDrv:  MaxL=1.
 Leave Link  303 at Wed Sep  2 15:33:59 2015, MaxMem=    33554432 cpu:         0.1
 (Enter /group/hpc-share/gaussian/2009D/g09/l401.exe)
 Initial guess from the checkpoint file:  "formaldehyde.chk"
 B after Tr=     0.000000    0.000000    0.000000
         Rot=    1.000000    0.000000    0.000000    0.000000 Ang=   0.00 deg.
 Guess basis will be translated and rotated to current coordinates.
 JPrj=2 DoOrth=T DoCkMO=T.
 Initial guess orbital symmetries:
       Occupied  (A1) (A1) (A1) (A1) (B2) (A1) (B1) (B2)
       Virtual   (A1) (A1) (A1) (A1) (A1) (A1) (A1) (A1) (A1) (A1)
                 (A1) (A2) (A2) (B1) (B1) (B1) (B1) (B1) (B2) (B2)
                 (B2) (B2) (B2) (B2)
 The electronic state of the initial guess is 1-A1.
 Generating alternative initial guess.
 ExpMin= 1.22D-01 ExpMax= 2.27D+03 ExpMxC= 3.41D+02 IAcc=1 IRadAn=         1 AccDes= 0.00D+00
 Harris functional with IExCor= 1009 and IRadAn=       1 diagonalized for initial guess.
 HarFok:  IExCor= 1009 AccDes= 0.00D+00 IRadAn=         1 IDoV= 1 UseB2=F ITyADJ=14
 ICtDFT=  3500011 ScaDFX=  1.000000  1.000000  1.000000  1.000000
 FoFCou: FMM=F IPFlag=           0 FMFlag=      100000 FMFlg1=           0
         NFxFlg=           0 DoJE=T BraDBF=F KetDBF=T FulRan=T
         wScrn=  0.000000 ICntrl=     500 IOpCl=  0 I1Cent=   200000004 NGrid=           0
         NMat0=    1 NMatS0=      1 NMatT0=    0 NMatD0=    1 NMtDS0=    0 NMtDT0=    0
 Petite list used in FoFCou.
 Harris En= -114.305450223400    
 Leave Link  401 at Wed Sep  2 15:33:59 2015, MaxMem=    33554432 cpu:         1.6
 (Enter /group/hpc-share/gaussian/2009D/g09/l502.exe)
 Closed shell SCF:
 Using DIIS extrapolation, IDIIS=  1040.
 Integral symmetry usage will be decided dynamically.
 Keep R1 ints in memory in symmetry-blocked form, NReq=1024632.
 IVT=       22642 IEndB=       22642 NGot=    33554432 MDV=    33490935
 LenX=    33490935 LenY=    33489338
 Requested convergence on RMS density matrix=1.00D-08 within 128 cycles.
 Requested convergence on MAX density matrix=1.00D-06.
 Requested convergence on             energy=1.00D-06.
 No special actions if energy rises.
 FoFCou: FMM=F IPFlag=           0 FMFlag=           0 FMFlg1=           0
         NFxFlg=           0 DoJE=F BraDBF=F KetDBF=F FulRan=T
         wScrn=  0.000000 ICntrl=     600 IOpCl=  0 I1Cent=           0 NGrid=           0
         NMat0=    1 NMatS0=    528 NMatT0=    0 NMatD0=    1 NMtDS0=    0 NMtDT0=    0
 Petite list used in FoFCou.
 Integral accuracy reduced to 1.0D-05 until final iterations.

 Cycle   1  Pass 0  IDiag  1:
 E= -114.278729067837    
 DIIS: error= 3.32D-03 at cycle   1 NSaved=   1.
 NSaved= 1 IEnMin= 1 EnMin= -114.278729067837     IErMin= 1 ErrMin= 3.32D-03
 ErrMax= 3.32D-03  0.00D+00 EMaxC= 1.00D-01 BMatC= 4.02D-04 BMatP= 4.02D-04
 IDIUse=3 WtCom= 9.67D-01 WtEn= 3.32D-02
 Coeff-Com:  0.100D+01
 Coeff-En:   0.100D+01
 Coeff:      0.100D+01
 Gap=     0.859 Goal=   None    Shift=    0.000
 GapD=    0.859 DampG=2.000 DampE=1.000 DampFc=2.0000 IDamp=-1.
 RMSDP=1.06D-03 MaxDP=7.90D-03              OVMax= 1.29D-02

 Cycle   2  Pass 0  IDiag  1:
 E= -114.279135660707     Delta-E=       -0.000406592870 Rises=F Damp=F
 DIIS: error= 3.21D-03 at cycle   2 NSaved=   2.
 NSaved= 2 IEnMin= 2 EnMin= -114.279135660707     IErMin= 2 ErrMin= 3.21D-03
 ErrMax= 3.21D-03  0.00D+00 EMaxC= 1.00D-01 BMatC= 2.98D-04 BMatP= 4.02D-04
 IDIUse=3 WtCom= 9.68D-01 WtEn= 3.21D-02
 Coeff-Com:  0.447D+00 0.553D+00
 Coeff-En:   0.000D+00 0.100D+01
 Coeff:      0.433D+00 0.567D+00
 Gap=     0.244 Goal=   None    Shift=    0.000
 RMSDP=5.75D-04 MaxDP=6.57D-03 DE=-4.07D-04 OVMax= 1.15D-02

 Cycle   3  Pass 0  IDiag  1:
 E= -114.279244598459     Delta-E=       -0.000108937752 Rises=F Damp=F
 DIIS: error= 2.71D-03 at cycle   3 NSaved=   3.
 NSaved= 3 IEnMin= 3 EnMin= -114.279244598459     IErMin= 3 ErrMin= 2.71D-03
 ErrMax= 2.71D-03  0.00D+00 EMaxC= 1.00D-01 BMatC= 1.48D-04 BMatP= 2.98D-04
 IDIUse=3 WtCom= 9.73D-01 WtEn= 2.71D-02
 Coeff-Com: -0.399D-02 0.412D+00 0.591D+00
 Coeff-En:   0.000D+00 0.376D+00 0.624D+00
 Coeff:     -0.388D-02 0.412D+00 0.592D+00
 Gap=     0.246 Goal=   None    Shift=    0.000
 RMSDP=2.83D-04 MaxDP=3.24D-03 DE=-1.09D-04 OVMax= 5.63D-03

 Cycle   4  Pass 0  IDiag  1:
 E= -114.279362570063     Delta-E=       -0.000117971604 Rises=F Damp=F
 DIIS: error= 1.70D-04 at cycle   4 NSaved=   4.
 NSaved= 4 IEnMin= 4 EnMin= -114.279362570063     IErMin= 4 ErrMin= 1.70D-04
 ErrMax= 1.70D-04  0.00D+00 EMaxC= 1.00D-01 BMatC= 8.22D-07 BMatP= 1.48D-04
 IDIUse=3 WtCom= 9.98D-01 WtEn= 1.70D-03
 Coeff-Com: -0.864D-02 0.552D-01 0.135D+00 0.819D+00
 Coeff-En:   0.000D+00 0.000D+00 0.000D+00 0.100D+01
 Coeff:     -0.863D-02 0.551D-01 0.134D+00 0.819D+00
 Gap=     0.246 Goal=   None    Shift=    0.000
 RMSDP=3.35D-05 MaxDP=2.17D-04 DE=-1.18D-04 OVMax= 4.10D-04

 Cycle   5  Pass 0  IDiag  1:
 E= -114.279363225782     Delta-E=       -0.000000655719 Rises=F Damp=F
 DIIS: error= 4.14D-05 at cycle   5 NSaved=   5.
 NSaved= 5 IEnMin= 5 EnMin= -114.279363225782     IErMin= 5 ErrMin= 4.14D-05
 ErrMax= 4.14D-05  0.00D+00 EMaxC= 1.00D-01 BMatC= 4.89D-08 BMatP= 8.22D-07
 IDIUse=1 WtCom= 1.00D+00 WtEn= 0.00D+00
 Coeff-Com: -0.403D-02 0.769D-02 0.381D-01 0.299D+00 0.659D+00
 Coeff:     -0.403D-02 0.769D-02 0.381D-01 0.299D+00 0.659D+00
 Gap=     0.246 Goal=   None    Shift=    0.000
 RMSDP=6.35D-06 MaxDP=9.64D-05 DE=-6.56D-07 OVMax= 6.77D-05

 Initial convergence to 1.0D-05 achieved.  Increase integral accuracy.
 Cycle   6  Pass 1  IDiag  1:
 E= -114.279354814510     Delta-E=        0.000008411272 Rises=F Damp=F
 DIIS: error= 9.09D-06 at cycle   1 NSaved=   1.
 NSaved= 1 IEnMin= 1 EnMin= -114.279354814510     IErMin= 1 ErrMin= 9.09D-06
 ErrMax= 9.09D-06  0.00D+00 EMaxC= 1.00D-01 BMatC= 2.58D-09 BMatP= 2.58D-09
 IDIUse=1 WtCom= 1.00D+00 WtEn= 0.00D+00
 Coeff-Com:  0.100D+01
 Coeff:      0.100D+01
 Gap=     0.246 Goal=   None    Shift=    0.000
 RMSDP=6.35D-06 MaxDP=9.64D-05 DE= 8.41D-06 OVMax= 3.60D-05

 Cycle   7  Pass 1  IDiag  1:
 E= -114.279354815189     Delta-E=       -0.000000000679 Rises=F Damp=F
 DIIS: error= 9.34D-06 at cycle   2 NSaved=   2.
 NSaved= 2 IEnMin= 2 EnMin= -114.279354815189     IErMin= 1 ErrMin= 9.09D-06
 ErrMax= 9.34D-06  0.00D+00 EMaxC= 1.00D-01 BMatC= 2.89D-09 BMatP= 2.58D-09
 IDIUse=1 WtCom= 1.00D+00 WtEn= 0.00D+00
 Coeff-Com:  0.516D+00 0.484D+00
 Coeff:      0.516D+00 0.484D+00
 Gap=     0.246 Goal=   None    Shift=    0.000
 RMSDP=1.60D-06 MaxDP=1.88D-05 DE=-6.79D-10 OVMax= 3.01D-05

 Cycle   8  Pass 1  IDiag  1:
 E= -114.279354817016     Delta-E=       -0.000000001827 Rises=F Damp=F
 DIIS: error= 5.05D-06 at cycle   3 NSaved=   3.
 NSaved= 3 IEnMin= 3 EnMin= -114.279354817016     IErMin= 3 ErrMin= 5.05D-06
 ErrMax= 5.05D-06  0.00D+00 EMaxC= 1.00D-01 BMatC= 5.64D-10 BMatP= 2.58D-09
 IDIUse=1 WtCom= 1.00D+00 WtEn= 0.00D+00
 Coeff-Com:  0.119D+00 0.319D+00 0.562D+00
 Coeff:      0.119D+00 0.319D+00 0.562D+00
 Gap=     0.246 Goal=   None    Shift=    0.000
 RMSDP=5.49D-07 MaxDP=5.40D-06 DE=-1.83D-09 OVMax= 9.43D-06

 Cycle   9  Pass 1  IDiag  1:
 E= -114.279354817442     Delta-E=       -0.000000000426 Rises=F Damp=F
 DIIS: error= 6.53D-07 at cycle   4 NSaved=   4.
 NSaved= 4 IEnMin= 4 EnMin= -114.279354817442     IErMin= 4 ErrMin= 6.53D-07
 ErrMax= 6.53D-07  0.00D+00 EMaxC= 1.00D-01 BMatC= 1.54D-11 BMatP= 5.64D-10
 IDIUse=1 WtCom= 1.00D+00 WtEn= 0.00D+00
 Coeff-Com: -0.263D-01 0.732D-01 0.207D+00 0.746D+00
 Coeff:     -0.263D-01 0.732D-01 0.207D+00 0.746D+00
 Gap=     0.246 Goal=   None    Shift=    0.000
 RMSDP=1.69D-07 MaxDP=1.42D-06 DE=-4.26D-10 OVMax= 1.82D-06

 Cycle  10  Pass 1  IDiag  1:
 E= -114.279354817459     Delta-E=       -0.000000000017 Rises=F Damp=F
 DIIS: error= 8.09D-08 at cycle   5 NSaved=   5.
 NSaved= 5 IEnMin= 5 EnMin= -114.279354817459     IErMin= 5 ErrMin= 8.09D-08
 ErrMax= 8.09D-08  0.00D+00 EMaxC= 1.00D-01 BMatC= 1.68D-13 BMatP= 1.54D-11
 IDIUse=1 WtCom= 1.00D+00 WtEn= 0.00D+00
 Coeff-Com: -0.745D-02 0.392D-02 0.210D-01 0.152D+00 0.831D+00
 Coeff:     -0.745D-02 0.392D-02 0.210D-01 0.152D+00 0.831D+00
 Gap=     0.246 Goal=   None    Shift=    0.000
 RMSDP=1.27D-08 MaxDP=1.89D-07 DE=-1.71D-11 OVMax= 1.51D-07

 Cycle  11  Pass 1  IDiag  1:
 E= -114.279354817460     Delta-E=       -0.000000000001 Rises=F Damp=F
 DIIS: error= 7.35D-09 at cycle   6 NSaved=   6.
 NSaved= 6 IEnMin= 6 EnMin= -114.279354817460     IErMin= 6 ErrMin= 7.35D-09
 ErrMax= 7.35D-09  0.00D+00 EMaxC= 1.00D-01 BMatC= 1.58D-15 BMatP= 1.68D-13
 IDIUse=1 WtCom= 1.00D+00 WtEn= 0.00D+00
 Coeff-Com:  0.682D-03-0.151D-02-0.559D-02-0.138D-01-0.731D-02 0.103D+01
 Coeff:      0.682D-03-0.151D-02-0.559D-02-0.138D-01-0.731D-02 0.103D+01
 Gap=     0.246 Goal=   None    Shift=    0.000
 RMSDP=2.93D-09 MaxDP=2.28D-08 DE=-6.82D-13 OVMax= 2.62D-08

 SCF Done:  E(RPBE1PBE) =  -114.279354817     A.U. after   11 cycles
            NFock= 11  Conv=0.29D-08     -V/T= 2.0070
 KE= 1.134833125125D+02 PE=-3.308025897838D+02 EE= 7.176265767398D+01
 Leave Link  502 at Wed Sep  2 15:34:00 2015, MaxMem=    33554432 cpu:         1.8
 (Enter /group/hpc-share/gaussian/2009D/g09/l701.exe)
 Compute integral first derivatives.
 ... and contract with generalized density number  0.
 Leave Link  701 at Wed Sep  2 15:34:00 2015, MaxMem=    33554432 cpu:         1.0
 (Enter /group/hpc-share/gaussian/2009D/g09/l702.exe)
 L702 exits ... SP integral derivatives will be done elsewhere.
 Leave Link  702 at Wed Sep  2 15:34:00 2015, MaxMem=    33554432 cpu:         0.2
 (Enter /group/hpc-share/gaussian/2009D/g09/l703.exe)
 Compute integral first derivatives, UseDBF=F ICtDFT=           0.
 Integral derivatives from FoFJK, PRISM(SPDF).
 Calling FoFJK, ICntrl=      2127 FMM=F ISym2X=1 I1Cent= 0 IOpClX= 0 NMat=1 NMatS=1 NMatT=0.
 FoFJK:  IHMeth= 1 ICntrl=    2127 DoSepK=F KAlg= 0 I1Cent=   0 FoldK=F
 IRaf=         0 NMat=   1 IRICut=       1 DoRegI=T DoRafI=F ISym2E= 1.
 FoFCou: FMM=F IPFlag=           0 FMFlag=      100000 FMFlg1=         800
         NFxFlg=           0 DoJE=F BraDBF=F KetDBF=F FulRan=T
         wScrn=  0.000000 ICntrl=    2127 IOpCl=  0 I1Cent=           0 NGrid=           0
         NMat0=    1 NMatS0=      1 NMatT0=    0 NMatD0=    1 NMtDS0=    0 NMtDT0=    0
 Petite list used in FoFCou.
 Leave Link  703 at Wed Sep  2 15:34:00 2015, MaxMem=    33554432 cpu:         1.0
 (Enter /group/hpc-share/gaussian/2009D/g09/l716.exe)
 Dipole        =-1.47645854D-17 0.00000000D+00-8.67384677D-01
 ***** Axes restored to original set *****
 -------------------------------------------------------------------
 Center     Atomic                   Forces (Hartrees/Bohr)
 Number     Number              X              Y              Z
 -------------------------------------------------------------------
      1        6           0.000000000    0.000000000    0.016177376
      2        8           0.000000000    0.000000000   -0.009330386
      3        1           0.000300824    0.000000000   -0.003423495
      4        1          -0.000300824    0.000000000   -0.003423495
 -------------------------------------------------------------------
 Cartesian Forces:  Max     0.016177376 RMS     0.005570646
 Leave Link  716 at Wed Sep  2 15:34:00 2015, MaxMem=    33554432 cpu:         0.1
 (Enter /group/hpc-share/gaussian/2009D/g09/l103.exe)

 GradGradGradGradGradGradGradGradGradGradGradGradGradGradGradGradGradGrad
 Berny optimization.
 Using GEDIIS/GDIIS optimizer.
 FormGI is forming the generalized inverse of G from B-inverse, IUseBI=4.
 Internal  Forces:  Max     0.009330386 RMS     0.004107169
 Search for a local minimum.
 Step number   2 out of a maximum of   20
 All quantities printed in internal units (Hartrees-Bohrs-Radians)
 RMS Force = .41072D-02 SwitMx=.10000D-02 MixMth= 1
 Mixed Optimization -- RFO/linear search
 Update second derivatives using D2CorX and points    1    2
 DE= -2.21D-03 DEPred=-1.84D-03 R= 1.20D+00
 TightC=F SS=  1.41D+00  RLast= 1.02D-01 DXNew= 5.0454D-01 3.0594D-01
 Trust test= 1.20D+00 RLast= 1.02D-01 DXMaxT set to 3.06D-01
 The second derivative matrix:
                          R1        R2        R3        A1        A2
           R1           0.85368
           R2           0.02958   0.35229
           R3           0.02958   0.00301   0.35229
           A1           0.01821  -0.00780  -0.00780   0.15719
           A2           0.01821  -0.00780  -0.00780  -0.00281   0.15719
           A3          -0.03642   0.01559   0.01559   0.00563   0.00563
           D1           0.00000   0.00000   0.00000   0.00000   0.00000
                          A3        D1
           A3           0.14875
           D1           0.00000   0.00248
 ITU=  1  0
 Use linear search instead of GDIIS.
     Eigenvalues ---    0.00248   0.13630   0.16000   0.34928   0.35614
     Eigenvalues ---    0.85966
 RFO step:  Lambda=-1.22079552D-04 EMin= 2.48058143D-03
 Quartic linear search produced a step of  0.30440.
 Iteration  1 RMS(Cart)=  0.01279716 RMS(Int)=  0.00017909
 Iteration  2 RMS(Cart)=  0.00018633 RMS(Int)=  0.00000001
 Iteration  3 RMS(Cart)=  0.00000001 RMS(Int)=  0.00000000
 ITry= 1 IFail=0 DXMaxC= 2.14D-02 DCOld= 1.00D+10 DXMaxT= 3.06D-01 DXLimC= 3.00D+00 Rises=F
 ClnCor:  largest displacement from symmetrization is 5.12D-11 for atom     1.
 Variable       Old X    -DE/DX   Delta X   Delta X   Delta X     New X
                                 (Linear)    (Quad)   (Total)
    R1        2.27184  -0.00933  -0.01024  -0.00369  -0.01393   2.25791
    R2        2.11036   0.00204   0.01597  -0.00627   0.00970   2.12006
    R3        2.11036   0.00204   0.01597  -0.00627   0.00970   2.12006
    A1        2.11945   0.00194   0.00763   0.00942   0.01705   2.13650
    A2        2.11945   0.00194   0.00763   0.00942   0.01705   2.13650
    A3        2.04428  -0.00389  -0.01525  -0.01885  -0.03410   2.01018
    D1        3.14159   0.00000   0.00000   0.00000   0.00000   3.14159
         Item               Value     Threshold  Converged?
 Maximum Force            0.009330     0.000450     NO 
 RMS     Force            0.004107     0.000300     NO 
 Maximum Displacement     0.021351     0.001800     NO 
 RMS     Displacement     0.012873     0.001200     NO 
 Predicted change in Energy=-1.768524D-04
 Lowest energy point so far.  Saving SCF results.
 GradGradGradGradGradGradGradGradGradGradGradGradGradGradGradGradGradGrad

 Leave Link  103 at Wed Sep  2 15:34:00 2015, MaxMem=    33554432 cpu:         0.0
 (Enter /group/hpc-share/gaussian/2009D/g09/l202.exe)
                          Input orientation:                          
 ---------------------------------------------------------------------
 Center     Atomic      Atomic             Coordinates (Angstroms)
 Number     Number       Type             X           Y           Z
 ---------------------------------------------------------------------
      1          6           0        0.000000    0.000000    0.034714
      2          8           0        0.000000    0.000000    1.229550
      3          1           0        0.947108    0.000000   -0.566632
      4          1           0       -0.947108    0.000000   -0.566632
 ---------------------------------------------------------------------
                    Distance matrix (angstroms):
                    1          2          3          4
     1  C    0.000000
     2  O    1.194836   0.000000
     3  H    1.121887   2.030587   0.000000
     4  H    1.121887   2.030587   1.894215   0.000000
 Stoichiometry    CH2O
 Framework group  C2V[C2(CO),SGV(H2)]
 Deg. of freedom     3
 Full point group                 C2V     NOp   4
 RotChk:  IX=0 Diff= 2.54D-15
 Largest Abelian subgroup         C2V     NOp   4
 Largest concise Abelian subgroup C2      NOp   2
                         Standard orientation:                         
 ---------------------------------------------------------------------
 Center     Atomic      Atomic             Coordinates (Angstroms)
 Number     Number       Type             X           Y           Z
 ---------------------------------------------------------------------
      1          6           0        0.000000    0.000000   -0.522250
      2          8           0        0.000000    0.000000    0.672586
      3          1           0        0.000000    0.947108   -1.123596
      4          1           0        0.000000   -0.947108   -1.123596
 ---------------------------------------------------------------------
 Rotational constants (GHZ):    279.5139051     39.2126766     34.3883723
 Leave Link  202 at Wed Sep  2 15:34:00 2015, MaxMem=    33554432 cpu:         0.0
 (Enter /group/hpc-share/gaussian/2009D/g09/l301.exe)
 Basis read from rwf:  (5D, 7F)
 No pseudopotential information found on rwf file.
 There are    18 symmetry adapted cartesian basis functions of A1  symmetry.
 There are     2 symmetry adapted cartesian basis functions of A2  symmetry.
 There are     6 symmetry adapted cartesian basis functions of B1  symmetry.
 There are     8 symmetry adapted cartesian basis functions of B2  symmetry.
 There are    16 symmetry adapted basis functions of A1  symmetry.
 There are     2 symmetry adapted basis functions of A2  symmetry.
 There are     6 symmetry adapted basis functions of B1  symmetry.
 There are     8 symmetry adapted basis functions of B2  symmetry.
    32 basis functions,    58 primitive gaussians,    34 cartesian basis functions
     8 alpha electrons        8 beta electrons
       nuclear repulsion energy        31.3677994961 Hartrees.
 IExCor= 1009 DFT=T Ex+Corr=PBE1PBE ExCW=0 ScaHFX=  0.250000
 ScaDFX=  0.750000  0.750000  1.000000  1.000000 ScalE2=  1.000000  1.000000
 IRadAn=      0 IRanWt=     -1 IRanGd=            0 ICorTp=0 IEmpDi=  4
 NAtoms=    4 NActive=    4 NUniq=    3 SFac= 1.78D+00 NAtFMM=   60 NAOKFM=F Big=F
 Integral buffers will be    131072 words long.
 Raffenetti 2 integral format.
 Two-electron integral symmetry is turned on.
 No density basis found on file   724.
 Leave Link  301 at Wed Sep  2 15:34:00 2015, MaxMem=    33554432 cpu:         0.5
 (Enter /group/hpc-share/gaussian/2009D/g09/l302.exe)
 NPDir=0 NMtPBC=     1 NCelOv=     1 NCel=       1 NClECP=     1 NCelD=      1
         NCelK=      1 NCelE2=     1 NClLst=     1 CellRange=     0.0.
 One-electron integrals computed using PRISM.
 One-electron integral symmetry used in STVInt
 NBasis=    32 RedAO= T EigKep=  3.76D-02  NBF=    16     2     6     8
 NBsUse=    32 1.00D-06 EigRej= -1.00D+00 NBFU=    16     2     6     8
 Precomputing XC quadrature grid using
 IXCGrd= 4 IRadAn=           0 IRanWt=          -1 IRanGd=           0 AccXCQ= 0.00D+00.
 Generated NRdTot=       0 NPtTot=           0 NUsed=           0 NTot=          32
 NSgBfM=    34    34    34    34    34 MxSgAt=     4 MxSgA2=     4.
 Leave Link  302 at Wed Sep  2 15:34:01 2015, MaxMem=    33554432 cpu:         1.5
 (Enter /group/hpc-share/gaussian/2009D/g09/l303.exe)
 DipDrv:  MaxL=1.
 Leave Link  303 at Wed Sep  2 15:34:01 2015, MaxMem=    33554432 cpu:         0.1
 (Enter /group/hpc-share/gaussian/2009D/g09/l401.exe)
 Initial guess from the checkpoint file:  "formaldehyde.chk"
 B after Tr=     0.000000    0.000000    0.000000
         Rot=    1.000000    0.000000    0.000000    0.000000 Ang=   0.00 deg.
 Guess basis will be translated and rotated to current coordinates.
 JPrj=2 DoOrth=T DoCkMO=T.
 Initial guess orbital symmetries:
       Occupied  (A1) (A1) (A1) (A1) (B2) (A1) (B1) (B2)
       Virtual   (A1) (A1) (A1) (A1) (A1) (A1) (A1) (A1) (A1) (A1)
                 (A1) (A2) (A2) (B1) (B1) (B1) (B1) (B1) (B2) (B2)
                 (B2) (B2) (B2) (B2)
 The electronic state of the initial guess is 1-A1.
 Generating alternative initial guess.
 ExpMin= 1.22D-01 ExpMax= 2.27D+03 ExpMxC= 3.41D+02 IAcc=1 IRadAn=         1 AccDes= 0.00D+00
 Harris functional with IExCor= 1009 and IRadAn=       1 diagonalized for initial guess.
 HarFok:  IExCor= 1009 AccDes= 0.00D+00 IRadAn=         1 IDoV= 1 UseB2=F ITyADJ=14
 ICtDFT=  3500011 ScaDFX=  1.000000  1.000000  1.000000  1.000000
 FoFCou: FMM=F IPFlag=           0 FMFlag=      100000 FMFlg1=           0
         NFxFlg=           0 DoJE=T BraDBF=F KetDBF=T FulRan=T
         wScrn=  0.000000 ICntrl=     500 IOpCl=  0 I1Cent=   200000004 NGrid=           0
         NMat0=    1 NMatS0=      1 NMatT0=    0 NMatD0=    1 NMtDS0=    0 NMtDT0=    0
 Petite list used in FoFCou.
 Harris En= -114.305345757706    
 Leave Link  401 at Wed Sep  2 15:34:01 2015, MaxMem=    33554432 cpu:         1.4
 (Enter /group/hpc-share/gaussian/2009D/g09/l502.exe)
 Closed shell SCF:
 Using DIIS extrapolation, IDIIS=  1040.
 Integral symmetry usage will be decided dynamically.
 Keep R1 ints in memory in symmetry-blocked form, NReq=1024632.
 IVT=       22642 IEndB=       22642 NGot=    33554432 MDV=    33490935
 LenX=    33490935 LenY=    33489338
 Requested convergence on RMS density matrix=1.00D-08 within 128 cycles.
 Requested convergence on MAX density matrix=1.00D-06.
 Requested convergence on             energy=1.00D-06.
 No special actions if energy rises.
 FoFCou: FMM=F IPFlag=           0 FMFlag=           0 FMFlg1=           0
         NFxFlg=           0 DoJE=F BraDBF=F KetDBF=F FulRan=T
         wScrn=  0.000000 ICntrl=     600 IOpCl=  0 I1Cent=           0 NGrid=           0
         NMat0=    1 NMatS0=    528 NMatT0=    0 NMatD0=    1 NMtDS0=    0 NMtDT0=    0
 Petite list used in FoFCou.
 Integral accuracy reduced to 1.0D-05 until final iterations.

 Cycle   1  Pass 0  IDiag  1:
 E= -114.279454655341    
 DIIS: error= 1.15D-03 at cycle   1 NSaved=   1.
 NSaved= 1 IEnMin= 1 EnMin= -114.279454655341     IErMin= 1 ErrMin= 1.15D-03
 ErrMax= 1.15D-03  0.00D+00 EMaxC= 1.00D-01 BMatC= 6.06D-05 BMatP= 6.06D-05
 IDIUse=3 WtCom= 9.89D-01 WtEn= 1.15D-02
 Coeff-Com:  0.100D+01
 Coeff-En:   0.100D+01
 Coeff:      0.100D+01
 Gap=     0.860 Goal=   None    Shift=    0.000
 GapD=    0.860 DampG=2.000 DampE=1.000 DampFc=2.0000 IDamp=-1.
 RMSDP=3.74D-04 MaxDP=2.84D-03              OVMax= 4.76D-03

 Cycle   2  Pass 0  IDiag  1:
 E= -114.279519997015     Delta-E=       -0.000065341674 Rises=F Damp=F
 DIIS: error= 9.59D-04 at cycle   2 NSaved=   2.
 NSaved= 2 IEnMin= 2 EnMin= -114.279519997015     IErMin= 2 ErrMin= 9.59D-04
 ErrMax= 9.59D-04  0.00D+00 EMaxC= 1.00D-01 BMatC= 3.18D-05 BMatP= 6.06D-05
 IDIUse=3 WtCom= 9.90D-01 WtEn= 9.59D-03
 Coeff-Com:  0.384D+00 0.616D+00
 Coeff-En:   0.000D+00 0.100D+01
 Coeff:      0.380D+00 0.620D+00
 Gap=     0.247 Goal=   None    Shift=    0.000
 RMSDP=2.03D-04 MaxDP=2.30D-03 DE=-6.53D-05 OVMax= 3.76D-03

 Cycle   3  Pass 0  IDiag  1:
 E= -114.279526124358     Delta-E=       -0.000006127343 Rises=F Damp=F
 DIIS: error= 1.02D-03 at cycle   3 NSaved=   3.
 NSaved= 3 IEnMin= 3 EnMin= -114.279526124358     IErMin= 2 ErrMin= 9.59D-04
 ErrMax= 1.02D-03  0.00D+00 EMaxC= 1.00D-01 BMatC= 2.12D-05 BMatP= 3.18D-05
 IDIUse=3 WtCom= 9.90D-01 WtEn= 1.02D-02
 Coeff-Com: -0.591D-03 0.449D+00 0.552D+00
 Coeff-En:   0.000D+00 0.440D+00 0.560D+00
 Coeff:     -0.585D-03 0.449D+00 0.552D+00
 Gap=     0.247 Goal=   None    Shift=    0.000
 RMSDP=1.08D-04 MaxDP=1.24D-03 DE=-6.13D-06 OVMax= 2.20D-03

 Cycle   4  Pass 0  IDiag  1:
 E= -114.279542971129     Delta-E=       -0.000016846770 Rises=F Damp=F
 DIIS: error= 1.05D-04 at cycle   4 NSaved=   4.
 NSaved= 4 IEnMin= 4 EnMin= -114.279542971129     IErMin= 4 ErrMin= 1.05D-04
 ErrMax= 1.05D-04  0.00D+00 EMaxC= 1.00D-01 BMatC= 2.05D-07 BMatP= 2.12D-05
 IDIUse=3 WtCom= 9.99D-01 WtEn= 1.05D-03
 Coeff-Com: -0.131D-01 0.647D-01 0.155D+00 0.794D+00
 Coeff-En:   0.000D+00 0.000D+00 0.000D+00 0.100D+01
 Coeff:     -0.131D-01 0.646D-01 0.154D+00 0.794D+00
 Gap=     0.247 Goal=   None    Shift=    0.000
 RMSDP=1.13D-05 MaxDP=1.32D-04 DE=-1.68D-05 OVMax= 1.55D-04

 Cycle   5  Pass 0  IDiag  1:
 E= -114.279543138582     Delta-E=       -0.000000167453 Rises=F Damp=F
 DIIS: error= 1.24D-05 at cycle   5 NSaved=   5.
 NSaved= 5 IEnMin= 5 EnMin= -114.279543138582     IErMin= 5 ErrMin= 1.24D-05
 ErrMax= 1.24D-05  0.00D+00 EMaxC= 1.00D-01 BMatC= 7.05D-09 BMatP= 2.05D-07
 IDIUse=1 WtCom= 1.00D+00 WtEn= 0.00D+00
 Coeff-Com: -0.322D-02 0.379D-02 0.358D-01 0.273D+00 0.691D+00
 Coeff:     -0.322D-02 0.379D-02 0.358D-01 0.273D+00 0.691D+00
 Gap=     0.247 Goal=   None    Shift=    0.000
 RMSDP=3.71D-06 MaxDP=2.87D-05 DE=-1.67D-07 OVMax= 4.09D-05

 Initial convergence to 1.0D-05 achieved.  Increase integral accuracy.
 Cycle   6  Pass 1  IDiag  1:
 E= -114.279532217935     Delta-E=        0.000010920646 Rises=F Damp=F
 DIIS: error= 7.29D-06 at cycle   1 NSaved=   1.
 NSaved= 1 IEnMin= 1 EnMin= -114.279532217935     IErMin= 1 ErrMin= 7.29D-06
 ErrMax= 7.29D-06  0.00D+00 EMaxC= 1.00D-01 BMatC= 8.99D-10 BMatP= 8.99D-10
 IDIUse=1 WtCom= 1.00D+00 WtEn= 0.00D+00
 Coeff-Com:  0.100D+01
 Coeff:      0.100D+01
 Gap=     0.247 Goal=   None    Shift=    0.000
 RMSDP=3.71D-06 MaxDP=2.87D-05 DE= 1.09D-05 OVMax= 2.55D-05

 Cycle   7  Pass 1  IDiag  1:
 E= -114.279532219319     Delta-E=       -0.000000001384 Rises=F Damp=F
 DIIS: error= 2.64D-06 at cycle   2 NSaved=   2.
 NSaved= 2 IEnMin= 2 EnMin= -114.279532219319     IErMin= 2 ErrMin= 2.64D-06
 ErrMax= 2.64D-06  0.00D+00 EMaxC= 1.00D-01 BMatC= 2.01D-10 BMatP= 8.99D-10
 IDIUse=1 WtCom= 1.00D+00 WtEn= 0.00D+00
 Coeff-Com:  0.263D+00 0.737D+00
 Coeff:      0.263D+00 0.737D+00
 Gap=     0.247 Goal=   None    Shift=    0.000
 RMSDP=6.12D-07 MaxDP=7.42D-06 DE=-1.38D-09 OVMax= 8.89D-06

 Cycle   8  Pass 1  IDiag  1:
 E= -114.279532219437     Delta-E=       -0.000000000118 Rises=F Damp=F
 DIIS: error= 2.34D-06 at cycle   3 NSaved=   3.
 NSaved= 3 IEnMin= 3 EnMin= -114.279532219437     IErMin= 3 ErrMin= 2.34D-06
 ErrMax= 2.34D-06  0.00D+00 EMaxC= 1.00D-01 BMatC= 1.19D-10 BMatP= 2.01D-10
 IDIUse=1 WtCom= 1.00D+00 WtEn= 0.00D+00
 Coeff-Com: -0.533D-02 0.427D+00 0.579D+00
 Coeff:     -0.533D-02 0.427D+00 0.579D+00
 Gap=     0.247 Goal=   None    Shift=    0.000
 RMSDP=3.21D-07 MaxDP=3.14D-06 DE=-1.18D-10 OVMax= 5.73D-06

 Cycle   9  Pass 1  IDiag  1:
 E= -114.279532219513     Delta-E=       -0.000000000076 Rises=F Damp=F
 DIIS: error= 9.19D-07 at cycle   4 NSaved=   4.
 NSaved= 4 IEnMin= 4 EnMin= -114.279532219513     IErMin= 4 ErrMin= 9.19D-07
 ErrMax= 9.19D-07  0.00D+00 EMaxC= 1.00D-01 BMatC= 2.80D-11 BMatP= 1.19D-10
 IDIUse=1 WtCom= 1.00D+00 WtEn= 0.00D+00
 Coeff-Com: -0.252D-01 0.192D+00 0.384D+00 0.449D+00
 Coeff:     -0.252D-01 0.192D+00 0.384D+00 0.449D+00
 Gap=     0.247 Goal=   None    Shift=    0.000
 RMSDP=1.28D-07 MaxDP=1.29D-06 DE=-7.62D-11 OVMax= 2.00D-06

 Cycle  10  Pass 1  IDiag  1:
 E= -114.279532219537     Delta-E=       -0.000000000023 Rises=F Damp=F
 DIIS: error= 5.17D-08 at cycle   5 NSaved=   5.
 NSaved= 5 IEnMin= 5 EnMin= -114.279532219537     IErMin= 5 ErrMin= 5.17D-08
 ErrMax= 5.17D-08  0.00D+00 EMaxC= 1.00D-01 BMatC= 3.31D-14 BMatP= 2.80D-11
 IDIUse=1 WtCom= 1.00D+00 WtEn= 0.00D+00
 Coeff-Com: -0.510D-02 0.174D-01 0.443D-01 0.387D-01 0.905D+00
 Coeff:     -0.510D-02 0.174D-01 0.443D-01 0.387D-01 0.905D+00
 Gap=     0.247 Goal=   None    Shift=    0.000
 RMSDP=7.79D-09 MaxDP=6.36D-08 DE=-2.32D-11 OVMax= 1.55D-07

 SCF Done:  E(RPBE1PBE) =  -114.279532220     A.U. after   10 cycles
            NFock= 10  Conv=0.78D-08     -V/T= 2.0069
 KE= 1.134956457166D+02 PE=-3.309744787071D+02 EE= 7.183150127489D+01
 Leave Link  502 at Wed Sep  2 15:34:01 2015, MaxMem=    33554432 cpu:         1.4
 (Enter /group/hpc-share/gaussian/2009D/g09/l701.exe)
 Compute integral first derivatives.
 ... and contract with generalized density number  0.
 Leave Link  701 at Wed Sep  2 15:34:01 2015, MaxMem=    33554432 cpu:         1.0
 (Enter /group/hpc-share/gaussian/2009D/g09/l702.exe)
 L702 exits ... SP integral derivatives will be done elsewhere.
 Leave Link  702 at Wed Sep  2 15:34:01 2015, MaxMem=    33554432 cpu:         0.2
 (Enter /group/hpc-share/gaussian/2009D/g09/l703.exe)
 Compute integral first derivatives, UseDBF=F ICtDFT=           0.
 Integral derivatives from FoFJK, PRISM(SPDF).
 Calling FoFJK, ICntrl=      2127 FMM=F ISym2X=1 I1Cent= 0 IOpClX= 0 NMat=1 NMatS=1 NMatT=0.
 FoFJK:  IHMeth= 1 ICntrl=    2127 DoSepK=F KAlg= 0 I1Cent=   0 FoldK=F
 IRaf=         0 NMat=   1 IRICut=       1 DoRegI=T DoRafI=F ISym2E= 1.
 FoFCou: FMM=F IPFlag=           0 FMFlag=      100000 FMFlg1=         800
         NFxFlg=           0 DoJE=F BraDBF=F KetDBF=F FulRan=T
         wScrn=  0.000000 ICntrl=    2127 IOpCl=  0 I1Cent=           0 NGrid=           0
         NMat0=    1 NMatS0=      1 NMatT0=    0 NMatD0=    1 NMtDS0=    0 NMtDT0=    0
 Petite list used in FoFCou.
 Leave Link  703 at Wed Sep  2 15:34:02 2015, MaxMem=    33554432 cpu:         1.6
 (Enter /group/hpc-share/gaussian/2009D/g09/l716.exe)
 Dipole        =-1.40172346D-17 0.00000000D+00-8.52425353D-01
 ***** Axes restored to original set *****
 -------------------------------------------------------------------
 Center     Atomic                   Forces (Hartrees/Bohr)
 Number     Number              X              Y              Z
 -------------------------------------------------------------------
      1        6           0.000000000    0.000000000   -0.001240958
      2        8           0.000000000    0.000000000    0.001220201
      3        1          -0.000093602    0.000000000    0.000010379
      4        1           0.000093602    0.000000000    0.000010379
 -------------------------------------------------------------------
 Cartesian Forces:  Max     0.001240958 RMS     0.000503869
 Leave Link  716 at Wed Sep  2 15:34:02 2015, MaxMem=    33554432 cpu:         0.1
 (Enter /group/hpc-share/gaussian/2009D/g09/l103.exe)

 GradGradGradGradGradGradGradGradGradGradGradGradGradGradGradGradGradGrad
 Berny optimization.
 Using GEDIIS/GDIIS optimizer.
 FormGI is forming the generalized inverse of G from B-inverse, IUseBI=4.
 Internal  Forces:  Max     0.001220201 RMS     0.000464195
 Search for a local minimum.
 Step number   3 out of a maximum of   20
 All quantities printed in internal units (Hartrees-Bohrs-Radians)
 RMS Force = .46419D-03 SwitMx=.10000D-02 MixMth= 2
 Mixed Optimization -- En-DIIS/RFO-DIIS
 Update second derivatives using D2CorX and points    1    2    3
 DE= -1.77D-04 DEPred=-1.77D-04 R= 1.00D+00
 TightC=F SS=  1.41D+00  RLast= 4.61D-02 DXNew= 5.1452D-01 1.3834D-01
 Trust test= 1.00D+00 RLast= 4.61D-02 DXMaxT set to 3.06D-01
 The second derivative matrix:
                          R1        R2        R3        A1        A2
           R1           0.91107
           R2           0.02386   0.35045
           R3           0.02386   0.00116   0.35045
           A1           0.01639  -0.00929  -0.00929   0.15605
           A2           0.01639  -0.00929  -0.00929  -0.00395   0.15605
           A3          -0.03277   0.01858   0.01858   0.00791   0.00791
           D1           0.00000   0.00000   0.00000   0.00000   0.00000
                          A3        D1
           A3           0.14418
           D1           0.00000   0.00248
 ITU=  1  1  0
 Use linear search instead of GDIIS.
     Eigenvalues ---    0.00248   0.12901   0.16000   0.34928   0.35498
     Eigenvalues ---    0.91497
 RFO step:  Lambda=-1.08808632D-06 EMin= 2.48058143D-03
 Quartic linear search produced a step of -0.04013.
 Iteration  1 RMS(Cart)=  0.00044467 RMS(Int)=  0.00000000
 Iteration  2 RMS(Cart)=  0.00000000 RMS(Int)=  0.00000000
 ITry= 1 IFail=0 DXMaxC= 9.46D-04 DCOld= 1.00D+10 DXMaxT= 3.06D-01 DXLimC= 3.00D+00 Rises=F
[...]
 NBsUse=    32 1.00D-06 EigRej= -1.00D+00 NBFU=    16     2     6     8
 Precomputing XC quadrature grid using
 IXCGrd= 4 IRadAn=           0 IRanWt=          -1 IRanGd=           0 AccXCQ= 0.00D+00.
 Generated NRdTot=       0 NPtTot=           0 NUsed=           0 NTot=          32
 NSgBfM=    34    34    34    34    34 MxSgAt=     4 MxSgA2=     4.
 Leave Link  302 at Wed Sep  2 15:34:02 2015, MaxMem=    33554432 cpu:         1.6
 (Enter /group/hpc-share/gaussian/2009D/g09/l303.exe)
 DipDrv:  MaxL=1.
 Leave Link  303 at Wed Sep  2 15:34:02 2015, MaxMem=    33554432 cpu:         0.1
 (Enter /group/hpc-share/gaussian/2009D/g09/l401.exe)
 Initial guess from the checkpoint file:  "formaldehyde.chk"
 B after Tr=     0.000000    0.000000    0.000000
         Rot=    1.000000    0.000000    0.000000    0.000000 Ang=   0.00 deg.
 Guess basis will be translated and rotated to current coordinates.
 JPrj=2 DoOrth=T DoCkMO=T.
 Initial guess orbital symmetries:
       Occupied  (A1) (A1) (A1) (A1) (B2) (A1) (B1) (B2)
       Virtual   (A1) (A1) (A1) (A1) (A1) (A1) (A1) (A1) (A1) (A1)
                 (A1) (A2) (A2) (B1) (B1) (B1) (B1) (B1) (B2) (B2)
                 (B2) (B2) (B2) (B2)
 The electronic state of the initial guess is 1-A1.
 Leave Link  401 at Wed Sep  2 15:34:03 2015, MaxMem=    33554432 cpu:         0.6
 (Enter /group/hpc-share/gaussian/2009D/g09/l502.exe)
 Closed shell SCF:
 Using DIIS extrapolation, IDIIS=  1040.
 Integral symmetry usage will be decided dynamically.
 Keep R1 ints in memory in symmetry-blocked form, NReq=1024632.
 IVT=       22642 IEndB=       22642 NGot=    33554432 MDV=    33490935
 LenX=    33490935 LenY=    33489338
 Requested convergence on RMS density matrix=1.00D-08 within 128 cycles.
 Requested convergence on MAX density matrix=1.00D-06.
 Requested convergence on             energy=1.00D-06.
 No special actions if energy rises.
 FoFCou: FMM=F IPFlag=           0 FMFlag=           0 FMFlg1=           0
         NFxFlg=           0 DoJE=F BraDBF=F KetDBF=F FulRan=T
         wScrn=  0.000000 ICntrl=     600 IOpCl=  0 I1Cent=           0 NGrid=           0
         NMat0=    1 NMatS0=    528 NMatT0=    0 NMatD0=    1 NMtDS0=    0 NMtDT0=    0
 Petite list used in FoFCou.

 Cycle   1  Pass 1  IDiag  1:
 E= -114.279532661378    
 DIIS: error= 6.97D-05 at cycle   1 NSaved=   1.
 NSaved= 1 IEnMin= 1 EnMin= -114.279532661378     IErMin= 1 ErrMin= 6.97D-05
 ErrMax= 6.97D-05  0.00D+00 EMaxC= 1.00D-01 BMatC= 3.16D-07 BMatP= 3.16D-07
 IDIUse=1 WtCom= 1.00D+00 WtEn= 0.00D+00
 Coeff-Com:  0.100D+01
 Coeff:      0.100D+01
 Gap=     0.860 Goal=   None    Shift=    0.000
 RMSDP=2.47D-05 MaxDP=1.80D-04              OVMax= 2.26D-04

 Cycle   2  Pass 1  IDiag  1:
 E= -114.279532988622     Delta-E=       -0.000000327244 Rises=F Damp=F
 DIIS: error= 4.20D-05 at cycle   2 NSaved=   2.
 NSaved= 2 IEnMin= 2 EnMin= -114.279532988622     IErMin= 2 ErrMin= 4.20D-05
 ErrMax= 4.20D-05  0.00D+00 EMaxC= 1.00D-01 BMatC= 7.31D-08 BMatP= 3.16D-07
 IDIUse=1 WtCom= 1.00D+00 WtEn= 0.00D+00
 Coeff-Com:  0.261D+00 0.739D+00
 Coeff:      0.261D+00 0.739D+00
 Gap=     0.247 Goal=   None    Shift=    0.000
 RMSDP=1.14D-05 MaxDP=1.15D-04 DE=-3.27D-07 OVMax= 1.70D-04

 Cycle   3  Pass 1  IDiag  1:
 E= -114.279532990050     Delta-E=       -0.000000001429 Rises=F Damp=F
 DIIS: error= 5.22D-05 at cycle   3 NSaved=   3.
 NSaved= 3 IEnMin= 3 EnMin= -114.279532990050     IErMin= 2 ErrMin= 4.20D-05
 ErrMax= 5.22D-05  0.00D+00 EMaxC= 1.00D-01 BMatC= 6.77D-08 BMatP= 7.31D-08
 IDIUse=1 WtCom= 1.00D+00 WtEn= 0.00D+00
 Coeff-Com:  0.362D-01 0.486D+00 0.478D+00
 Coeff:      0.362D-01 0.486D+00 0.478D+00
 Gap=     0.247 Goal=   None    Shift=    0.000
 RMSDP=6.57D-06 MaxDP=7.53D-05 DE=-1.43D-09 OVMax= 1.28D-04

 Cycle   4  Pass 1  IDiag  1:
 E= -114.279533040095     Delta-E=       -0.000000050045 Rises=F Damp=F
 DIIS: error= 1.35D-05 at cycle   4 NSaved=   4.
 NSaved= 4 IEnMin= 4 EnMin= -114.279533040095     IErMin= 4 ErrMin= 1.35D-05
 ErrMax= 1.35D-05  0.00D+00 EMaxC= 1.00D-01 BMatC= 3.62D-09 BMatP= 6.77D-08
 IDIUse=1 WtCom= 1.00D+00 WtEn= 0.00D+00
 Coeff-Com: -0.119D-01 0.149D+00 0.254D+00 0.609D+00
 Coeff:     -0.119D-01 0.149D+00 0.254D+00 0.609D+00
 Gap=     0.247 Goal=   None    Shift=    0.000
 RMSDP=1.37D-06 MaxDP=1.85D-05 DE=-5.00D-08 OVMax= 2.24D-05

 Cycle   5  Pass 1  IDiag  1:
 E= -114.279533043115     Delta-E=       -0.000000003020 Rises=F Damp=F
 DIIS: error= 1.07D-06 at cycle   5 NSaved=   5.
 NSaved= 5 IEnMin= 5 EnMin= -114.279533043115     IErMin= 5 ErrMin= 1.07D-06
 ErrMax= 1.07D-06  0.00D+00 EMaxC= 1.00D-01 BMatC= 5.30D-11 BMatP= 3.62D-09
 IDIUse=1 WtCom= 1.00D+00 WtEn= 0.00D+00
 Coeff-Com: -0.371D-02 0.126D-01 0.521D-01 0.166D+00 0.773D+00
 Coeff:     -0.371D-02 0.126D-01 0.521D-01 0.166D+00 0.773D+00
 Gap=     0.247 Goal=   None    Shift=    0.000
 RMSDP=3.36D-07 MaxDP=2.62D-06 DE=-3.02D-09 OVMax= 3.82D-06

 Cycle   6  Pass 1  IDiag  1:
 E= -114.279533043175     Delta-E=       -0.000000000060 Rises=F Damp=F
 DIIS: error= 1.52D-07 at cycle   6 NSaved=   6.
 NSaved= 6 IEnMin= 6 EnMin= -114.279533043175     IErMin= 6 ErrMin= 1.52D-07
 ErrMax= 1.52D-07  0.00D+00 EMaxC= 1.00D-01 BMatC= 5.82D-13 BMatP= 5.30D-11
 IDIUse=1 WtCom= 1.00D+00 WtEn= 0.00D+00
 Coeff-Com:  0.954D-04-0.380D-02-0.344D-02-0.113D-01 0.621D-01 0.956D+00
 Coeff:      0.954D-04-0.380D-02-0.344D-02-0.113D-01 0.621D-01 0.956D+00
 Gap=     0.247 Goal=   None    Shift=    0.000
 RMSDP=3.05D-08 MaxDP=3.13D-07 DE=-6.00D-11 OVMax= 2.46D-07

 Cycle   7  Pass 1  IDiag  1:
 E= -114.279533043176     Delta-E=       -0.000000000001 Rises=F Damp=F
 DIIS: error= 1.04D-08 at cycle   7 NSaved=   7.
 NSaved= 7 IEnMin= 7 EnMin= -114.279533043176     IErMin= 7 ErrMin= 1.04D-08
 ErrMax= 1.04D-08  0.00D+00 EMaxC= 1.00D-01 BMatC= 2.63D-15 BMatP= 5.82D-13
 IDIUse=1 WtCom= 1.00D+00 WtEn= 0.00D+00
 Coeff-Com:  0.284D-04-0.159D-03-0.567D-03-0.164D-02-0.286D-02 0.129D-01
 Coeff-Com:  0.992D+00
 Coeff:      0.284D-04-0.159D-03-0.567D-03-0.164D-02-0.286D-02 0.129D-01
 Coeff:      0.992D+00
 Gap=     0.247 Goal=   None    Shift=    0.000
 RMSDP=3.15D-09 MaxDP=2.77D-08 DE=-1.02D-12 OVMax= 5.95D-08

 SCF Done:  E(RPBE1PBE) =  -114.279533043     A.U. after    7 cycles
            NFock=  7  Conv=0.31D-08     -V/T= 2.0069
 KE= 1.134932940628D+02 PE=-3.309479008420D+02 EE= 7.182009948930D+01
 Leave Link  502 at Wed Sep  2 15:34:03 2015, MaxMem=    33554432 cpu:         1.6
 (Enter /group/hpc-share/gaussian/2009D/g09/l701.exe)
 Compute integral first derivatives.
 ... and contract with generalized density number  0.
 Leave Link  701 at Wed Sep  2 15:34:03 2015, MaxMem=    33554432 cpu:         1.0
 (Enter /group/hpc-share/gaussian/2009D/g09/l702.exe)
 L702 exits ... SP integral derivatives will be done elsewhere.
 Leave Link  702 at Wed Sep  2 15:34:03 2015, MaxMem=    33554432 cpu:         0.2
 (Enter /group/hpc-share/gaussian/2009D/g09/l703.exe)
 Compute integral first derivatives, UseDBF=F ICtDFT=           0.
 Integral derivatives from FoFJK, PRISM(SPDF).
 Calling FoFJK, ICntrl=      2127 FMM=F ISym2X=1 I1Cent= 0 IOpClX= 0 NMat=1 NMatS=1 NMatT=0.
 FoFJK:  IHMeth= 1 ICntrl=    2127 DoSepK=F KAlg= 0 I1Cent=   0 FoldK=F
 IRaf=         0 NMat=   1 IRICut=       1 DoRegI=T DoRafI=F ISym2E= 1.
 FoFCou: FMM=F IPFlag=           0 FMFlag=      100000 FMFlg1=         800
         NFxFlg=           0 DoJE=F BraDBF=F KetDBF=F FulRan=T
         wScrn=  0.000000 ICntrl=    2127 IOpCl=  0 I1Cent=           0 NGrid=           0
         NMat0=    1 NMatS0=      1 NMatT0=    0 NMatD0=    1 NMtDS0=    0 NMtDT0=    0
 Petite list used in FoFCou.
 Leave Link  703 at Wed Sep  2 15:34:03 2015, MaxMem=    33554432 cpu:         1.2
 (Enter /group/hpc-share/gaussian/2009D/g09/l716.exe)
 Dipole        =-1.40599333D-17 0.00000000D+00-8.53797334D-01
 ***** Axes restored to original set *****
 -------------------------------------------------------------------
 Center     Atomic                   Forces (Hartrees/Bohr)
 Number     Number              X              Y              Z
 -------------------------------------------------------------------
      1        6           0.000000000    0.000000000    0.000023837
      2        8           0.000000000    0.000000000   -0.000060331
      3        1          -0.000026810    0.000000000    0.000018247
      4        1           0.000026810    0.000000000    0.000018247
 -------------------------------------------------------------------
 Cartesian Forces:  Max     0.000060331 RMS     0.000022934
 Leave Link  716 at Wed Sep  2 15:34:03 2015, MaxMem=    33554432 cpu:         0.2
 (Enter /group/hpc-share/gaussian/2009D/g09/l103.exe)

 GradGradGradGradGradGradGradGradGradGradGradGradGradGradGradGradGradGrad
 Berny optimization.
 Using GEDIIS/GDIIS optimizer.
 FormGI is forming the generalized inverse of G from B-inverse, IUseBI=4.
 Internal  Forces:  Max     0.000060331 RMS     0.000028647
 Search for a local minimum.
 Step number   4 out of a maximum of   20
 All quantities printed in internal units (Hartrees-Bohrs-Radians)
 RMS Force = .28647D-04 SwitMx=.10000D-02 MixMth= 2
 Mixed Optimization -- En-DIIS/RFO-DIIS
 Swapping is turned off.
 Update second derivatives using D2CorX and points    1    2    3    4
 DE= -8.24D-07 DEPred=-8.56D-07 R= 9.62D-01
 Trust test= 9.62D-01 RLast= 1.43D-03 DXMaxT set to 3.06D-01
 The second derivative matrix:
                          R1        R2        R3        A1        A2
           R1           0.96792
           R2           0.04692   0.35038
           R3           0.04692   0.00110   0.35038
           A1           0.01614  -0.00819  -0.00819   0.15576
           A2           0.01614  -0.00819  -0.00819  -0.00424   0.15576
           A3          -0.03228   0.01639   0.01639   0.00848   0.00848
           D1           0.00000   0.00000   0.00000   0.00000   0.00000
                          A3        D1
           A3           0.14305
           D1           0.00000   0.00248
 ITU=  0  1  1  0
     Eigenvalues ---    0.00248   0.12816   0.16000   0.34926   0.34928
     Eigenvalues ---    0.97655
 En-DIIS/RFO-DIIS IScMMF=        0 using points:     4    3
 RFO step:  Lambda=-6.89038990D-09.
 NNeg= 0 NP= 2 Switch=  2.50D-03 Rises=F DC=  8.24D-07 SmlDif=  1.00D-05
 RMS Error=  0.3554854306D-04 NUsed= 2 EDIIS=F
 DidBck=F Rises=F RFO-DIIS coefs:    0.96578    0.03422
 Iteration  1 RMS(Cart)=  0.00004961 RMS(Int)=  0.00000000
 Iteration  2 RMS(Cart)=  0.00000000 RMS(Int)=  0.00000000
 ITry= 1 IFail=0 DXMaxC= 7.15D-05 DCOld= 1.00D+10 DXMaxT= 3.06D-01 DXLimC= 3.00D+00 Rises=F
 ClnCor:  largest displacement from symmetrization is 1.80D-13 for atom     1.
 Variable       Old X    -DE/DX   Delta X   Delta X   Delta X     New X
                                 (Linear)    (Quad)   (Total)
    R1        2.25927  -0.00006  -0.00005  -0.00001  -0.00005   2.25921
    R2        2.11973  -0.00003   0.00001  -0.00010  -0.00009   2.11965
    R3        2.11973  -0.00003   0.00001  -0.00010  -0.00009   2.11965
    A1        2.13652   0.00000   0.00000  -0.00001  -0.00001   2.13651
    A2        2.13652   0.00000   0.00000  -0.00001  -0.00001   2.13651
    A3        2.01014   0.00000   0.00000   0.00002   0.00002   2.01016
    D1        3.14159   0.00000   0.00000   0.00000   0.00000   3.14159
         Item               Value     Threshold  Converged?
 Maximum Force            0.000060     0.000450     YES
 RMS     Force            0.000029     0.000300     YES
 Maximum Displacement     0.000072     0.001800     YES
 RMS     Displacement     0.000050     0.001200     YES
 Predicted change in Energy=-4.422946D-09
 Optimization completed.
    -- Stationary point found.
                           ----------------------------
                           !   Optimized Parameters   !
                           ! (Angstroms and Degrees)  !
 --------------------------                            --------------------------
 ! Name  Definition              Value          Derivative Info.                !
 --------------------------------------------------------------------------------
 ! R1    R(1,2)                  1.1956         -DE/DX =   -0.0001              !
 ! R2    R(1,3)                  1.1217         -DE/DX =    0.0                 !
 ! R3    R(1,4)                  1.1217         -DE/DX =    0.0                 !
 ! A1    A(2,1,3)              122.4138         -DE/DX =    0.0                 !
 ! A2    A(2,1,4)              122.4138         -DE/DX =    0.0                 !
 ! A3    A(3,1,4)              115.1723         -DE/DX =    0.0                 !
 ! D1    D(2,1,4,3)            180.0            -DE/DX =    0.0                 !
 --------------------------------------------------------------------------------
 Lowest energy point so far.  Saving SCF results.
 GradGradGradGradGradGradGradGradGradGradGradGradGradGradGradGradGradGrad

 Largest change from initial coordinates is atom    3       0.038 Angstoms.
 Leave Link  103 at Wed Sep  2 15:34:03 2015, MaxMem=    33554432 cpu:         0.2
 (Enter /group/hpc-share/gaussian/2009D/g09/l202.exe)
                          Input orientation:                          
 ---------------------------------------------------------------------
 Center     Atomic      Atomic             Coordinates (Angstroms)
 Number     Number       Type             X           Y           Z
 ---------------------------------------------------------------------
      1          6           0        0.000000    0.000000    0.034499
      2          8           0        0.000000    0.000000    1.230051
      3          1           0        0.946949    0.000000   -0.566775
      4          1           0       -0.946949    0.000000   -0.566775
 ---------------------------------------------------------------------
                    Distance matrix (angstroms):
                    1          2          3          4
     1  C    0.000000
     2  O    1.195552   0.000000
     3  H    1.121714   2.031082   0.000000
     4  H    1.121714   2.031082   1.893899   0.000000
 Stoichiometry    CH2O
 Framework group  C2V[C2(CO),SGV(H2)]
 Deg. of freedom     3
 Full point group                 C2V     NOp   4
 RotChk:  IX=0 Diff= 2.48D-16
 Largest Abelian subgroup         C2V     NOp   4
 Largest concise Abelian subgroup C2      NOp   2
                         Standard orientation:                         
 ---------------------------------------------------------------------
 Center     Atomic      Atomic             Coordinates (Angstroms)
 Number     Number       Type             X           Y           Z
 ---------------------------------------------------------------------
      1          6           0        0.000000    0.000000   -0.522617
      2          8           0        0.000000    0.000000    0.672935
      3          1           0        0.000000    0.946949   -1.123890
      4          1           0        0.000000   -0.946949   -1.123890
 ---------------------------------------------------------------------
 Rotational constants (GHZ):    279.6073536     39.1720892     34.3585649
 Leave Link  202 at Wed Sep  2 15:34:03 2015, MaxMem=    33554432 cpu:         0.0
 (Enter /group/hpc-share/gaussian/2009D/g09/l601.exe)
 Copying SCF densities to generalized density rwf, IOpCl= 0 IROHF=0.

 **********************************************************************

            Population analysis using the SCF density.

 **********************************************************************

 Orbital symmetries:
       Occupied  (A1) (A1) (A1) (A1) (B2) (A1) (B1) (B2)
       Virtual   (B1) (A1) (B2) (A1) (A1) (B1) (B2) (A1) (B2) (A1)
                 (A1) (B1) (B2) (A1) (A2) (B1) (A1) (B2) (A1) (A2)
                 (A1) (B1) (B2) (A1)
 The electronic state is 1-A1.
 Alpha  occ. eigenvalues --  -19.22801 -10.32793  -1.08335  -0.64362  -0.51127
 Alpha  occ. eigenvalues --   -0.46726  -0.42027  -0.28170
 Alpha virt. eigenvalues --   -0.03458   0.08067   0.14745   0.20958   0.46104
 Alpha virt. eigenvalues --    0.47367   0.57043   0.62146   0.65351   0.70061
 Alpha virt. eigenvalues --    0.91479   1.01869   1.12428   1.30585   1.59149
 Alpha virt. eigenvalues --    1.64164   1.88080   1.93922   2.28987   2.66166
 Alpha virt. eigenvalues --    2.68362   3.13271   3.17894   3.57918
          Condensed to atoms (all electrons):
               1          2          3          4
     1  C    4.700139   0.616438   0.345855   0.345855
     2  O    0.616438   7.691804  -0.048524  -0.048524
     3  H    0.345855  -0.048524   0.688583  -0.095655
     4  H    0.345855  -0.048524  -0.095655   0.688583
 Mulliken charges:
               1
     1  C   -0.008287
     2  O   -0.211194
     3  H    0.109740
     4  H    0.109740
 Sum of Mulliken charges =   0.00000
 Mulliken charges with hydrogens summed into heavy atoms:
               1
     1  C    0.211194
     2  O   -0.211194
 Electronic spatial extent (au):  <R**2>=             60.2584
 Charge=              0.0000 electrons
 Dipole moment (field-independent basis, Debye):
    X=              0.0000    Y=              0.0000    Z=             -2.1701  Tot=              2.1701
 Quadrupole moment (field-independent basis, Debye-Ang):
   XX=            -11.4301   YY=            -11.5652   ZZ=            -12.0338
   XY=              0.0000   XZ=              0.0000   YZ=              0.0000
 Traceless Quadrupole moment (field-independent basis, Debye-Ang):
   XX=              0.2463   YY=              0.1112   ZZ=             -0.3575
   XY=              0.0000   XZ=              0.0000   YZ=              0.0000
 Octapole moment (field-independent basis, Debye-Ang**2):
  XXX=              0.0000  YYY=              0.0000  ZZZ=              1.2110  XYY=              0.0000
  XXY=              0.0000  XXZ=              0.9317  XZZ=              0.0000  YZZ=              0.0000
  YYZ=              0.1291  XYZ=              0.0000
 Hexadecapole moment (field-independent basis, Debye-Ang**3):
 XXXX=             -9.3856 YYYY=            -18.3086 ZZZZ=            -44.0799 XXXY=              0.0000
 XXXZ=              0.0000 YYYX=              0.0000 YYYZ=              0.0000 ZZZX=              0.0000
 ZZZY=              0.0000 XXYY=             -4.8182 XXZZ=             -8.8803 YYZZ=            -10.1366
 XXYZ=              0.0000 YYXZ=              0.0000 ZZXY=              0.0000
 N-N= 3.135497424668D+01 E-N=-3.309479005151D+02  KE= 1.134932940628D+02
 Symmetry A1   KE= 1.031552286235D+02
 Symmetry A2   KE= 4.822608725690D-35
 Symmetry B1   KE= 3.643956380363D+00
 Symmetry B2   KE= 6.694109058972D+00
 No NMR shielding tensors so no spin-rotation constants.
 Leave Link  601 at Wed Sep  2 15:34:04 2015, MaxMem=    33554432 cpu:         1.6
 (Enter /group/hpc-share/gaussian/2009D/g09/l9999.exe)
 B after Tr=     0.000000    0.000000   -0.028682
         Rot=    1.000000    0.000000    0.000000    0.000000 Ang=   0.00 deg.
 Final structure in terms of initial Z-matrix:
 C
 O,1,oc2
 H,1,hc3,2,hco3
 H,1,hc4,2,hco4,3,dih4,0
      Variables:
 oc2=1.19555209
 hc3=1.1217141
 hco3=122.41384126
 hc4=1.1217141
 hco4=122.41384126
 dih4=180.
 1\1\GINC-HPC-CN12\FOpt\RPBE1PBE\Gen\C1H2O1\6498IVANOVM\02-Sep-2015\0\\
 #P PBE1PBE/gen opt\\formaldehyde\\0,1\C,0.,0.,0.0344986025\O,0.,0.,1.2
 300506906\H,0.9469493147,0.,-0.5667746465\H,-0.9469493147,0.,-0.566774
 6465\\Version=EM64L-G09RevD.01\State=1-A1\HF=-114.279533\RMSD=3.150e-0
 9\RMSF=2.293e-05\Dipole=0.,0.,-0.8537973\Quadrupole=0.0826623,0.183095
 1,-0.2657574,0.,0.,0.\PG=C02V [C2(C1O1),SGV(H2)]\\@


 THE 2ND LAW OF THERMODYNAMICS HAS THE SAME
 DEGREE OF TRUTH AS THE STATEMENT THAT IF YOU THROW
 A TUMBLERFULL OF WATER INTO THE SEA, YOU CANNOT GET
 THE SAME TUMBLERFULL OF WATER OUT AGAIN.
          - J.C. MAXWELL, LETTER TO LORD RAYLEIGH, DECEMBER 6,1870
 Job cpu time:       0 days  0 hours  0 minutes 43.8 seconds.
 File lengths (MBytes):  RWF=      5 Int=      0 D2E=      0 Chk=      1 Scr=      1
 Normal termination of Gaussian 09 at Wed Sep  2 15:34:04 2015.
