 Entering Gaussian System, Link 0=g09
 Input=methanethiol.com
 Output=methanethiol.log
 AtFile(1): methanethiol.zmat
             s
             h   1 hs2
             c    1 cs3         2 csh3
             h    3 hc4         1 hcs4          2 dih4
             h    3 hc5         1 hcs5          4 dih5
             h    3 hc6         1 hcs6          4 dih6
            
            hs2         0.950000
            cs3         1.400000
            csh3        109.471
            hc4         1.089000
            hcs4        109.471
            dih4        180.000
            hc5         1.089000
            hcs5        109.471
            dih5        120.000
            hc6         1.089000
            hcs6        109.471
            dih6        240.000
 AtFile(1): /home/MARQNET/talipovm/basis-library/def2-SV(P)+d.gbs
            !  Def2-SV(P)  EMSL  Basis Set Exchange Library   3/29/11 8:36 AM
            ! Elements                             References
            ! --------                             ----------
            ! H He Li Be B C N O F Ne Na Mg Al Si P S Cl Ar K Ca Sc Ti V Cr Mn Fe Co Ni Cu Zn Ga Ge As Se Br Kr Rb Sr Y Zr Nb Mo Tc Ru Rh Pd Ag Cd In Sn Sb Te I Xe Cs Ba La Hf Ta W Re Os Ir Pt Au Hg Tl Pb Bi Po At Rn : F. Weigend and R. Ahlrichs, Phys. Chem. Chem. Phys., Balanced basis sets of split valence, triple zeta valence and quadruple zeta valence
            ! quality for H to Rn: Design and assessment of accuracy 7, 3297 (2005).
            !
            -H     0
            S   3   1.00
                 13.0107010              0.19682158E-01
                  1.9622572              0.13796524
                  0.44453796             0.47831935
            S   1   1.00
                  0.12194962             1.0000000
            ****
            -B     0
            S   5   1.00
                839.31830086            -0.55929201074E-02
                126.26464843            -0.41565520771E-01
                 28.620600763           -0.18299816983
                  7.8793722710          -0.46540391866
                  2.4088857172          -0.44173884791
            S   1   1.00
                  0.25105109036          1.0000000
            S   1   1.00
                  0.83648866069E-01            1.0000000
            P   3   1.00
                  6.0332223619          -0.35603672456E-01
                  1.2499157866          -0.19895775769
                  0.33871676350         -0.50850202618
            P   1   1.00
                  0.96415632351E-01            1.0000000
            D   1   1.00
                  0.5000000              1.0000000
            ****
            -C     0
            S   5   1.00
               1238.4016938              0.54568832082E-02
                186.29004992             0.40638409211E-01
                 42.251176346            0.18025593888
                 11.676557932            0.46315121755
                  3.5930506482           0.44087173314
            S   1   1.00
                  0.40245147363          1.0000000
            S   1   1.00
                  0.13090182668          1.0000000
            P   3   1.00
                  9.4680970621           0.38387871728E-01
                  2.0103545142           0.21117025112
                  0.54771004707          0.51328172114
            P   1   1.00
                  0.15268613795          1.0000000
            D   1   1.00
                  0.8000000              1.0000000
            ****
            -N     0
            S   5   1.00
               1712.8415853             -0.53934125305E-02
                257.64812677            -0.40221581118E-01
                 58.458245853           -0.17931144990
                 16.198367905           -0.46376317823
                  5.0052600809          -0.44171422662
            S   1   1.00
                  0.58731856571          1.0000000
            S   1   1.00
                  0.18764592253          1.0000000
            P   3   1.00
                 13.571470233           -0.40072398852E-01
                  2.9257372874          -0.21807045028
                  0.79927750754         -0.51294466049
            P   1   1.00
                  0.21954348034          1.0000000
            D   1   1.00
                  1.0000000              1.0000000
            ****
            -O     0
            S   5   1.00
               2266.1767785             -0.53431809926E-02
                340.87010191            -0.39890039230E-01
                 77.363135167           -0.17853911985
                 21.479644940           -0.46427684959
                  6.6589433124          -0.44309745172
            S   1   1.00
                  0.80975975668          1.0000000
            S   1   1.00
                  0.25530772234          1.0000000
            P   3   1.00
                 17.721504317            0.43394573193E-01
                  3.8635505440           0.23094120765
                  1.0480920883           0.51375311064
            P   1   1.00
                  0.27641544411          1.0000000
            D   1   1.00
                  1.2000000              1.0000000
            ****
            -F     0
            S   5   1.00
               2894.8325990             -0.53408255515E-02
                435.41939120            -0.39904258866E-01
                 98.843328866           -0.17912768038
                 27.485198001           -0.46758090825
                  8.5405498171          -0.44653131020
            S   1   1.00
                  1.0654578038           1.0000000
            S   1   1.00
                  0.33247346748          1.0000000
            P   3   1.00
                 22.696633924           -0.45212874436E-01
                  4.9872339257          -0.23754317067
                  1.3491613954          -0.51287353587
            P   1   1.00
                  0.34829881977          1.0000000
            D   1   1.00
                  1.4000000              1.0000000
            ****
            -S     0
            S   5   1.00
               9184.9303010             -0.22294387756E-02
               1381.5105503             -0.16683029937E-01
                313.87147580            -0.75262436116E-01
                 88.053870623           -0.19376827038
                 27.039914905           -0.17718020803
            S   3   1.00
                 45.648731303           -0.10736062573
                  4.9664522326           0.65066293018
                  2.0116242047           0.59712155354
            S   1   1.00
                  0.35661077013          1.0000000
            S   1   1.00
                  0.13507221477          1.0000000
            P   5   1.00
                261.98233439            -0.92729929822E-02
                 61.306894736           -0.66547669241E-01
                 19.103729887           -0.24828595903
                  6.6567720378          -0.48703847402
                  2.3959635161          -0.39337850312
            P   1   1.00
                  0.61776161679          1.0000000
            P   1   1.00
                  0.16993376871          1.0000000
            D   1   1.00
                  0.5500000              1.0000000
            D   1   1.00
                  2.9940000              1.0000000
            ****
            -Cl     0
            S   5   1.00
              10449.8275660              0.19708362484E-02
               1571.7365221              0.14754727977E-01
                357.12065523             0.66679112875E-01
                100.25185935             0.17228924084
                 30.812727554            0.15883786100
            S   3   1.00
                 51.923789434           -0.10009298909
                  5.7045760975           0.60841752753
                  2.3508376809           0.54352153355
            S   1   1.00
                  0.44605124672          1.0000000
            S   1   1.00
                  0.16848856190          1.0000000
            P   5   1.00
                307.66790569            -0.87801484118E-02
                 72.102015515           -0.63563355471E-01
                 22.532680262           -0.24016428276
                  7.8991765444          -0.47798866557
                  2.8767268321          -0.38515850005
            P   1   1.00
                  0.77459363955          1.0000000
            P   1   1.00
                  0.21037699698          1.0000000
            D   1   1.00
                  0.6500000              1.0000000
            D   1   1.00
                  3.6520000              1.0000000
            ****
            -Al     0
            S   5   1.00
               5887.5727030              0.13483347987E-02
                885.61225996             0.10071576809E-01
                201.13604899             0.45132454056E-01
                 56.284974674            0.11461268043
                 17.229551243            0.10159608943
            S   3   1.00
                 29.340249922            0.69347454208E-01
                  3.0439630420          -0.42528117679
                  1.1285539518          -0.41449832210
            S   1   1.00
                  0.14234175160          1.0000000
            S   1   1.00
                  0.54400192313E-01            1.0000000
            P   5   1.00
                145.11918809             0.63963373134E-02
                 33.717894833            0.44189359965E-01
                 10.369863083            0.15581575993
                  3.5135616036           0.28635286951
                  1.1980050273           0.22921423248
            P   1   1.00
                  0.26583005913          1.0000000
            P   1   1.00
                  0.71003361994E-01            1.0000000
            D   1   1.00
                  0.3000000              1.0000000
            D   1   1.00
                  1.1950000              1.0000000
            ****
            -Ti     0
            S   6   1.00
              42961.5121850              0.39127635355E-02
               6450.9759169              0.29969820489E-01
               1467.7210915              0.14836352707
                414.20997355             0.51347285324
                134.48715840             1.0335365483
                 46.122209796            0.77854233930
            S   3   1.00
                 89.447762543           -0.28385401259
                 10.223346060            1.6772785333
                  4.1353774271           1.2411928456
            S   3   1.00
                  6.7896181452          -0.78399994518E-02
                  1.1106730691           0.25495493019E-01
                  0.47565975578          0.16061172892E-01
            S   1   1.00
                  0.65986956934E-01            1.0000000
            S   1   1.00
                  0.25210342250E-01            1.0000000
            P   5   1.00
                522.03684782             0.19754179642E-01
                122.68649489             0.14460677619
                 38.572903611            0.54669004165
                 13.672169319            1.0531647540
                  5.0118529359           0.69111213363
            P   3   1.00
                  2.4131928282           0.75803437136
                  0.93252270050          1.3036241399
                  0.35429058390          0.53638653300
            P   1   1.00
                  0.1015610              1.0000000
            D   4   1.00
                 23.465125957            0.26536380115E-01
                  6.3332593832           0.13796453963
                  2.0766489946           0.35312644228
                  0.69027361954          0.48647124166
            D   1   1.00
                  0.21088738554          1.0000000
            ****
            -P     0
            S   5   1.00
               8002.4795106              0.57503489302E-02
               1203.6813590              0.43007628959E-01
                273.44227031             0.19363986252
                 76.655541517            0.49651693399
                 23.516927435            0.44983262479
            S   3   1.00
                 39.791683439            0.95188129789E-01
                  4.2770343323          -0.57649840368
                  1.6940256888          -0.54239583865
            S   1   1.00
                  0.27567674644          1.0000000
            S   1   1.00
                  0.10495590099          1.0000000
            P   5   1.00
                219.50755823             0.92100565257E-02
                 51.274155030            0.65409765745E-01
                 15.921595892            0.24033730279
                  5.5069913481           0.46318321788
                  1.9537719426           0.37392563382
            P   1   1.00
                  0.47803397932          1.0000000
            P   1   1.00
                  0.13657952621          1.0000000
            D   1   1.00
                  0.4500000              1.0000000
            D   1   1.00
                   2.5060000              1.0000000
            ****
 Initial command:
 /group/hpc-share/gaussian/2009D/g09/l1.exe "/scratch/gaussian/g_methanethiol.com-809495.hn1.marqnet.mu.edu/Gau-12706.inp" -scrdir="/scratch/gaussian/g_methanethiol.com-809495.hn1.marqnet.mu.edu/"
 Entering Link 1 = /group/hpc-share/gaussian/2009D/g09/l1.exe PID=     12710.
  
 Copyright (c) 1988,1990,1992,1993,1995,1998,2003,2009,2013,
            Gaussian, Inc.  All Rights Reserved.
  
 This is part of the Gaussian(R) 09 program.  It is based on
 the Gaussian(R) 03 system (copyright 2003, Gaussian, Inc.),
 the Gaussian(R) 98 system (copyright 1998, Gaussian, Inc.),
 the Gaussian(R) 94 system (copyright 1995, Gaussian, Inc.),
 the Gaussian 92(TM) system (copyright 1992, Gaussian, Inc.),
 the Gaussian 90(TM) system (copyright 1990, Gaussian, Inc.),
 the Gaussian 88(TM) system (copyright 1988, Gaussian, Inc.),
 the Gaussian 86(TM) system (copyright 1986, Carnegie Mellon
 University), and the Gaussian 82(TM) system (copyright 1983,
 Carnegie Mellon University). Gaussian is a federally registered
 trademark of Gaussian, Inc.
  
 This software contains proprietary and confidential information,
 including trade secrets, belonging to Gaussian, Inc.
  
 This software is provided under written license and may be
 used, copied, transmitted, or stored only in accord with that
 written license.
  
 The following legend is applicable only to US Government
 contracts under FAR:
  
                    RESTRICTED RIGHTS LEGEND
  
 Use, reproduction and disclosure by the US Government is
 subject to restrictions as set forth in subparagraphs (a)
 and (c) of the Commercial Computer Software - Restricted
 Rights clause in FAR 52.227-19.
  
 Gaussian, Inc.
 340 Quinnipiac St., Bldg. 40, Wallingford CT 06492
  
  
 ---------------------------------------------------------------
 Warning -- This program may not be used in any manner that
 competes with the business of Gaussian, Inc. or will provide
 assistance to any competitor of Gaussian, Inc.  The licensee
 of this program is prohibited from giving any competitor of
 Gaussian, Inc. access to this program.  By using this program,
 the user acknowledges that Gaussian, Inc. is engaged in the
 business of creating and licensing software in the field of
 computational chemistry and represents and warrants to the
 licensee that it is not a competitor of Gaussian, Inc. and that
 it will not use this program in any manner prohibited above.
 ---------------------------------------------------------------
  

 Cite this work as:
 Gaussian 09, Revision D.01,
 M. J. Frisch, G. W. Trucks, H. B. Schlegel, G. E. Scuseria, 
 M. A. Robb, J. R. Cheeseman, G. Scalmani, V. Barone, B. Mennucci, 
 G. A. Petersson, H. Nakatsuji, M. Caricato, X. Li, H. P. Hratchian, 
 A. F. Izmaylov, J. Bloino, G. Zheng, J. L. Sonnenberg, M. Hada, 
 M. Ehara, K. Toyota, R. Fukuda, J. Hasegawa, M. Ishida, T. Nakajima, 
 Y. Honda, O. Kitao, H. Nakai, T. Vreven, J. A. Montgomery, Jr., 
 J. E. Peralta, F. Ogliaro, M. Bearpark, J. J. Heyd, E. Brothers, 
 K. N. Kudin, V. N. Staroverov, T. Keith, R. Kobayashi, J. Normand, 
 K. Raghavachari, A. Rendell, J. C. Burant, S. S. Iyengar, J. Tomasi, 
 M. Cossi, N. Rega, J. M. Millam, M. Klene, J. E. Knox, J. B. Cross, 
 V. Bakken, C. Adamo, J. Jaramillo, R. Gomperts, R. E. Stratmann, 
 O. Yazyev, A. J. Austin, R. Cammi, C. Pomelli, J. W. Ochterski, 
 R. L. Martin, K. Morokuma, V. G. Zakrzewski, G. A. Voth, 
 P. Salvador, J. J. Dannenberg, S. Dapprich, A. D. Daniels, 
 O. Farkas, J. B. Foresman, J. V. Ortiz, J. Cioslowski, 
 and D. J. Fox, Gaussian, Inc., Wallingford CT, 2013.
 
 ******************************************
 Gaussian 09:  EM64L-G09RevD.01 24-Apr-2013
                 2-Sep-2015 
 ******************************************
 %nproc=8
 Will use up to    8 processors via shared memory.
 %chk=methanethiol.chk
 ------------------
 #P PBE1PBE/gen opt
 ------------------
 1/14=-1,18=20,19=15,26=3,38=1/1,3;
 2/9=110,12=2,17=6,18=5,40=1/2;
 3/5=7,11=2,16=1,25=1,30=1,71=1,74=-13/1,2,3;
 4//1;
 5/5=2,38=5/2;
 6/7=2,8=2,9=2,10=2,28=1/1;
 7//1,2,3,16;
 1/14=-1,18=20,19=15,26=3/3(2);
 2/9=110/2;
 99//99;
 2/9=110/2;
 3/5=7,6=1,11=2,16=1,25=1,30=1,71=1,74=-13,82=7/1,2,3;
 4/5=5,16=3,69=1/1;
 5/5=2,38=5/2;
 7//1,2,3,16;
 1/14=-1,18=20,19=15,26=3/3(-5);
 2/9=110/2;
 6/7=2,8=2,9=2,10=2,19=2,28=1/1;
 99/9=1/99;
 Leave Link    1 at Wed Sep  2 15:36:42 2015, MaxMem=           0 cpu:         0.7
 (Enter /group/hpc-share/gaussian/2009D/g09/l101.exe)
 ------------
 methanethiol
 ------------
 Symbolic Z-matrix:
 Charge =  0 Multiplicity = 1
 s
 h                    1    hs2
 c                    1    cs3      2    csh3
 h                    3    hc4      1    hcs4     2    dih4     0
 h                    3    hc5      1    hcs5     4    dih5     0
 h                    3    hc6      1    hcs6     4    dih6     0
       Variables:
  hs2                   0.95                     
  cs3                   1.4                      
  csh3                109.471                    
  hc4                   1.089                    
  hcs4                109.471                    
  dih4                180.                       
  hc5                   1.089                    
  hcs5                109.471                    
  dih5                120.                       
  hc6                   1.089                    
  hcs6                109.471                    
  dih6                240.                       
 
     4 tetrahedral angles replaced.
 NAtoms=      6 NQM=        6 NQMF=       0 NMMI=      0 NMMIF=      0
                NMic=       0 NMicF=      0.
                    Isotopes and Nuclear Properties:
 (Nuclear quadrupole moments (NQMom) in fm**2, nuclear magnetic moments (NMagM)
  in nuclear magnetons)

  Atom         1           2           3           4           5           6
 IAtWgt=          32           1          12           1           1           1
 AtmWgt=  31.9720718   1.0078250  12.0000000   1.0078250   1.0078250   1.0078250
 NucSpn=           0           1           0           1           1           1
 AtZEff=   0.0000000   0.0000000   0.0000000   0.0000000   0.0000000   0.0000000
 NQMom=    0.0000000   0.0000000   0.0000000   0.0000000   0.0000000   0.0000000
 NMagM=    0.0000000   2.7928460   0.0000000   2.7928460   2.7928460   2.7928460
 AtZNuc=  16.0000000   1.0000000   6.0000000   1.0000000   1.0000000   1.0000000
 Leave Link  101 at Wed Sep  2 15:36:42 2015, MaxMem=    33554432 cpu:         1.0
 (Enter /group/hpc-share/gaussian/2009D/g09/l103.exe)

 GradGradGradGradGradGradGradGradGradGradGradGradGradGradGradGradGradGrad
 Berny optimization.
 Initialization pass.
                           ----------------------------
                           !    Initial Parameters    !
                           ! (Angstroms and Degrees)  !
 --------------------------                            --------------------------
 ! Name  Definition              Value          Derivative Info.                !
 --------------------------------------------------------------------------------
 ! R1    R(1,2)                  0.95           estimate D2E/DX2                !
 ! R2    R(1,3)                  1.4            estimate D2E/DX2                !
 ! R3    R(3,4)                  1.089          estimate D2E/DX2                !
 ! R4    R(3,5)                  1.089          estimate D2E/DX2                !
 ! R5    R(3,6)                  1.089          estimate D2E/DX2                !
 ! A1    A(2,1,3)              109.4712         estimate D2E/DX2                !
 ! A2    A(1,3,4)              109.4712         estimate D2E/DX2                !
 ! A3    A(1,3,5)              109.4712         estimate D2E/DX2                !
 ! A4    A(1,3,6)              109.4712         estimate D2E/DX2                !
 ! A5    A(4,3,5)              109.4712         estimate D2E/DX2                !
 ! A6    A(4,3,6)              109.4712         estimate D2E/DX2                !
 ! A7    A(5,3,6)              109.4712         estimate D2E/DX2                !
 ! D1    D(2,1,3,4)            180.0            estimate D2E/DX2                !
 ! D2    D(2,1,3,5)            -60.0            estimate D2E/DX2                !
 ! D3    D(2,1,3,6)             60.0            estimate D2E/DX2                !
 --------------------------------------------------------------------------------
 Trust Radius=3.00D-01 FncErr=1.00D-07 GrdErr=1.00D-06
 Number of steps in this run=     25 maximum allowed number of steps=    100.
 GradGradGradGradGradGradGradGradGradGradGradGradGradGradGradGradGradGrad

 Leave Link  103 at Wed Sep  2 15:36:43 2015, MaxMem=    33554432 cpu:         0.1
 (Enter /group/hpc-share/gaussian/2009D/g09/l202.exe)
                          Input orientation:                          
 ---------------------------------------------------------------------
 Center     Atomic      Atomic             Coordinates (Angstroms)
 Number     Number       Type             X           Y           Z
 ---------------------------------------------------------------------
      1         16           0        0.000000    0.000000    0.000000
      2          1           0        0.000000    0.000000    0.950000
      3          6           0        1.319933    0.000000   -0.466667
      4          1           0        1.319933    0.000000   -1.555667
      5          1           0        1.833292    0.889165   -0.103667
      6          1           0        1.833292   -0.889165   -0.103667
 ---------------------------------------------------------------------
                    Distance matrix (angstroms):
                    1          2          3          4          5
     1  S    0.000000
     2  H    0.950000   0.000000
     3  C    1.400000   1.936276   0.000000
     4  H    2.040177   2.832064   1.089000   0.000000
     5  H    2.040177   2.293859   1.089000   1.778330   0.000000
     6  H    2.040177   2.293859   1.089000   1.778330   1.778330
                    6
     6  H    0.000000
 Stoichiometry    CH4S
 Framework group  CS[SG(CH2S),X(H2)]
 Deg. of freedom     8
 Full point group                 CS      NOp   2
 Largest Abelian subgroup         CS      NOp   2
 Largest concise Abelian subgroup CS      NOp   2
                         Standard orientation:                         
 ---------------------------------------------------------------------
 Center     Atomic      Atomic             Coordinates (Angstroms)
 Number     Number       Type             X           Y           Z
 ---------------------------------------------------------------------
      1         16           0       -0.034449   -0.514321    0.000000
      2          1           0        0.861220   -0.830987    0.000000
      3          6           0       -0.034449    0.885679    0.000000
      4          1           0       -1.061168    1.248679    0.000000
      5          1           0        0.478911    1.248679    0.889165
      6          1           0        0.478911    1.248679   -0.889165
 ---------------------------------------------------------------------
 Rotational constants (GHZ):    127.7700751     20.4398902     19.8239860
 Leave Link  202 at Wed Sep  2 15:36:43 2015, MaxMem=    33554432 cpu:         0.0
 (Enter /group/hpc-share/gaussian/2009D/g09/l301.exe)
 General basis read from cards:  (5D, 7F)
 Centers:       2      4      5      6
 S 3 1.00
     Exponent=  1.3010701000D+01 Coefficients=  1.9682158000D-02
     Exponent=  1.9622572000D+00 Coefficients=  1.3796524000D-01
     Exponent=  4.4453796000D-01 Coefficients=  4.7831935000D-01
 S 1 1.00
     Exponent=  1.2194962000D-01 Coefficients=  1.0000000000D+00
 ****
 Centers:       3
 S 5 1.00
     Exponent=  1.2384016938D+03 Coefficients=  5.4568832082D-03
     Exponent=  1.8629004992D+02 Coefficients=  4.0638409211D-02
     Exponent=  4.2251176346D+01 Coefficients=  1.8025593888D-01
     Exponent=  1.1676557932D+01 Coefficients=  4.6315121755D-01
     Exponent=  3.5930506482D+00 Coefficients=  4.4087173314D-01
 S 1 1.00
     Exponent=  4.0245147363D-01 Coefficients=  1.0000000000D+00
 S 1 1.00
     Exponent=  1.3090182668D-01 Coefficients=  1.0000000000D+00
 P 3 1.00
     Exponent=  9.4680970621D+00 Coefficients=  3.8387871728D-02
     Exponent=  2.0103545142D+00 Coefficients=  2.1117025112D-01
     Exponent=  5.4771004707D-01 Coefficients=  5.1328172114D-01
 P 1 1.00
     Exponent=  1.5268613795D-01 Coefficients=  1.0000000000D+00
 D 1 1.00
     Exponent=  8.0000000000D-01 Coefficients=  1.0000000000D+00
 ****
 Centers:       1
 S 5 1.00
     Exponent=  9.1849303010D+03 Coefficients= -2.2294387756D-03
     Exponent=  1.3815105503D+03 Coefficients= -1.6683029937D-02
     Exponent=  3.1387147580D+02 Coefficients= -7.5262436116D-02
     Exponent=  8.8053870623D+01 Coefficients= -1.9376827038D-01
     Exponent=  2.7039914905D+01 Coefficients= -1.7718020803D-01
 S 3 1.00
     Exponent=  4.5648731303D+01 Coefficients= -1.0736062573D-01
     Exponent=  4.9664522326D+00 Coefficients=  6.5066293018D-01
     Exponent=  2.0116242047D+00 Coefficients=  5.9712155354D-01
 S 1 1.00
     Exponent=  3.5661077013D-01 Coefficients=  1.0000000000D+00
 S 1 1.00
     Exponent=  1.3507221477D-01 Coefficients=  1.0000000000D+00
 P 5 1.00
     Exponent=  2.6198233439D+02 Coefficients= -9.2729929822D-03
     Exponent=  6.1306894736D+01 Coefficients= -6.6547669241D-02
     Exponent=  1.9103729887D+01 Coefficients= -2.4828595903D-01
     Exponent=  6.6567720378D+00 Coefficients= -4.8703847402D-01
     Exponent=  2.3959635161D+00 Coefficients= -3.9337850312D-01
 P 1 1.00
     Exponent=  6.1776161679D-01 Coefficients=  1.0000000000D+00
 P 1 1.00
     Exponent=  1.6993376871D-01 Coefficients=  1.0000000000D+00
 D 1 1.00
     Exponent=  5.5000000000D-01 Coefficients=  1.0000000000D+00
 D 1 1.00
     Exponent=  2.9940000000D+00 Coefficients=  1.0000000000D+00
 ****
 Ernie: Thresh=  0.10000D-02 Tol=  0.10000D-05 Strict=F.
 There are    35 symmetry adapted cartesian basis functions of A'  symmetry.
 There are    13 symmetry adapted cartesian basis functions of A"  symmetry.
 There are    32 symmetry adapted basis functions of A'  symmetry.
 There are    13 symmetry adapted basis functions of A"  symmetry.
    45 basis functions,    84 primitive gaussians,    48 cartesian basis functions
    13 alpha electrons       13 beta electrons
       nuclear repulsion energy        69.5765015842 Hartrees.
 IExCor= 1009 DFT=T Ex+Corr=PBE1PBE ExCW=0 ScaHFX=  0.250000
 ScaDFX=  0.750000  0.750000  1.000000  1.000000 ScalE2=  1.000000  1.000000
 IRadAn=      0 IRanWt=     -1 IRanGd=            0 ICorTp=0 IEmpDi=  4
 NAtoms=    6 NActive=    6 NUniq=    5 SFac= 1.44D+00 NAtFMM=   60 NAOKFM=F Big=F
 Integral buffers will be    131072 words long.
 Raffenetti 2 integral format.
 Two-electron integral symmetry is turned on.
 Leave Link  301 at Wed Sep  2 15:36:43 2015, MaxMem=    33554432 cpu:         1.7
 (Enter /group/hpc-share/gaussian/2009D/g09/l302.exe)
 NPDir=0 NMtPBC=     1 NCelOv=     1 NCel=       1 NClECP=     1 NCelD=      1
         NCelK=      1 NCelE2=     1 NClLst=     1 CellRange=     0.0.
 One-electron integrals computed using PRISM.
 One-electron integral symmetry used in STVInt
 NBasis=    45 RedAO= T EigKep=  5.21D-03  NBF=    32    13
 NBsUse=    45 1.00D-06 EigRej= -1.00D+00 NBFU=    32    13
 Precomputing XC quadrature grid using
 IXCGrd= 4 IRadAn=           0 IRanWt=          -1 IRanGd=           0 AccXCQ= 0.00D+00.
 Generated NRdTot=       0 NPtTot=           0 NUsed=           0 NTot=          32
 NSgBfM=    48    48    48    48    48 MxSgAt=     6 MxSgA2=     6.
 Leave Link  302 at Wed Sep  2 15:36:43 2015, MaxMem=    33554432 cpu:         1.0
 (Enter /group/hpc-share/gaussian/2009D/g09/l303.exe)
 DipDrv:  MaxL=1.
 Leave Link  303 at Wed Sep  2 15:36:43 2015, MaxMem=    33554432 cpu:         0.2
 (Enter /group/hpc-share/gaussian/2009D/g09/l401.exe)
 ExpMin= 1.22D-01 ExpMax= 9.18D+03 ExpMxC= 1.38D+03 IAcc=1 IRadAn=         1 AccDes= 0.00D+00
 Harris functional with IExCor= 1009 and IRadAn=       1 diagonalized for initial guess.
 HarFok:  IExCor= 1009 AccDes= 0.00D+00 IRadAn=         1 IDoV= 1 UseB2=F ITyADJ=14
 ICtDFT=  3500011 ScaDFX=  1.000000  1.000000  1.000000  1.000000
 FoFCou: FMM=F IPFlag=           0 FMFlag=      100000 FMFlg1=           0
         NFxFlg=           0 DoJE=T BraDBF=F KetDBF=T FulRan=T
         wScrn=  0.000000 ICntrl=     500 IOpCl=  0 I1Cent=   200000004 NGrid=           0
         NMat0=    1 NMatS0=      1 NMatT0=    0 NMatD0=    1 NMtDS0=    0 NMtDT0=    0
 Petite list used in FoFCou.
 Harris En= -438.023461628372    
 JPrj=0 DoOrth=F DoCkMO=F.
 Initial guess orbital symmetries:
       Occupied  (A') (A') (A') (A') (A') (A") (A') (A') (A') (A")
                 (A') (A') (A")
       Virtual   (A') (A') (A") (A') (A') (A') (A') (A") (A') (A")
                 (A') (A') (A") (A') (A") (A') (A") (A') (A') (A')
                 (A') (A') (A') (A") (A") (A') (A') (A") (A') (A")
                 (A') (A')
 The electronic state of the initial guess is 1-A'.
 Leave Link  401 at Wed Sep  2 15:36:43 2015, MaxMem=    33554432 cpu:         1.0
 (Enter /group/hpc-share/gaussian/2009D/g09/l502.exe)
 Closed shell SCF:
 Using DIIS extrapolation, IDIIS=  1040.
 Integral symmetry usage will be decided dynamically.
 Keep R1 ints in memory in symmetry-blocked form, NReq=1434035.
 IVT=       26286 IEndB=       26286 NGot=    33554432 MDV=    33246890
 LenX=    33246890 LenY=    33244145
 Requested convergence on RMS density matrix=1.00D-08 within 128 cycles.
 Requested convergence on MAX density matrix=1.00D-06.
 Requested convergence on             energy=1.00D-06.
 No special actions if energy rises.
 FoFCou: FMM=F IPFlag=           0 FMFlag=           0 FMFlg1=           0
         NFxFlg=           0 DoJE=F BraDBF=F KetDBF=F FulRan=T
         wScrn=  0.000000 ICntrl=     600 IOpCl=  0 I1Cent=           0 NGrid=           0
         NMat0=    1 NMatS0=   1035 NMatT0=    0 NMatD0=    1 NMtDS0=    0 NMtDT0=    0
 Petite list used in FoFCou.
 Integral accuracy reduced to 1.0D-05 until final iterations.

 Cycle   1  Pass 0  IDiag  1:
 E= -437.942885343594    
 DIIS: error= 5.06D-02 at cycle   1 NSaved=   1.
 NSaved= 1 IEnMin= 1 EnMin= -437.942885343594     IErMin= 1 ErrMin= 5.06D-02
 ErrMax= 5.06D-02  0.00D+00 EMaxC= 1.00D-01 BMatC= 8.91D-02 BMatP= 8.91D-02
 IDIUse=3 WtCom= 4.94D-01 WtEn= 5.06D-01
 Coeff-Com:  0.100D+01
 Coeff-En:   0.100D+01
 Coeff:      0.100D+01
 Gap=     0.275 Goal=   None    Shift=    0.000
 GapD=    0.275 DampG=1.000 DampE=0.500 DampFc=0.5000 IDamp=-1.
 Damping current iteration by 5.00D-01
 RMSDP=1.39D-02 MaxDP=1.87D-01              OVMax= 1.66D-01

 Cycle   2  Pass 0  IDiag  1:
 E= -437.986424945617     Delta-E=       -0.043539602023 Rises=F Damp=T
 DIIS: error= 4.52D-03 at cycle   2 NSaved=   2.
 NSaved= 2 IEnMin= 2 EnMin= -437.986424945617     IErMin= 2 ErrMin= 4.52D-03
 ErrMax= 4.52D-03  0.00D+00 EMaxC= 1.00D-01 BMatC= 2.57D-03 BMatP= 8.91D-02
 IDIUse=3 WtCom= 9.55D-01 WtEn= 4.52D-02
 Coeff-Com:  0.342D-01 0.966D+00
 Coeff-En:   0.444D-01 0.956D+00
 Coeff:      0.347D-01 0.965D+00
 Gap=     0.281 Goal=   None    Shift=    0.000
 RMSDP=2.62D-03 MaxDP=2.71D-02 DE=-4.35D-02 OVMax= 8.62D-02

 Cycle   3  Pass 0  IDiag  1:
 E= -438.033411989876     Delta-E=       -0.046987044259 Rises=F Damp=F
 DIIS: error= 3.27D-03 at cycle   3 NSaved=   3.
 NSaved= 3 IEnMin= 3 EnMin= -438.033411989876     IErMin= 3 ErrMin= 3.27D-03
 ErrMax= 3.27D-03  0.00D+00 EMaxC= 1.00D-01 BMatC= 6.06D-04 BMatP= 2.57D-03
 IDIUse=3 WtCom= 9.67D-01 WtEn= 3.27D-02
 Coeff-Com: -0.591D-02 0.292D+00 0.714D+00
 Coeff-En:   0.000D+00 0.000D+00 0.100D+01
 Coeff:     -0.571D-02 0.282D+00 0.723D+00
 Gap=     0.287 Goal=   None    Shift=    0.000
 RMSDP=1.11D-03 MaxDP=1.07D-02 DE=-4.70D-02 OVMax= 1.20D-02

 Cycle   4  Pass 0  IDiag  1:
 E= -438.033913139593     Delta-E=       -0.000501149716 Rises=F Damp=F
 DIIS: error= 8.99D-04 at cycle   4 NSaved=   4.
 NSaved= 4 IEnMin= 4 EnMin= -438.033913139593     IErMin= 4 ErrMin= 8.99D-04
 ErrMax= 8.99D-04  0.00D+00 EMaxC= 1.00D-01 BMatC= 4.08D-05 BMatP= 6.06D-04
 IDIUse=3 WtCom= 9.91D-01 WtEn= 8.99D-03
 Coeff-Com: -0.193D-02 0.187D-01 0.217D+00 0.766D+00
 Coeff-En:   0.000D+00 0.000D+00 0.000D+00 0.100D+01
 Coeff:     -0.192D-02 0.186D-01 0.215D+00 0.768D+00
 Gap=     0.285 Goal=   None    Shift=    0.000
 RMSDP=2.57D-04 MaxDP=3.02D-03 DE=-5.01D-04 OVMax= 2.72D-03

 Cycle   5  Pass 0  IDiag  1:
 E= -438.033949864070     Delta-E=       -0.000036724477 Rises=F Damp=F
 DIIS: error= 1.42D-04 at cycle   5 NSaved=   5.
 NSaved= 5 IEnMin= 5 EnMin= -438.033949864070     IErMin= 5 ErrMin= 1.42D-04
 ErrMax= 1.42D-04  0.00D+00 EMaxC= 1.00D-01 BMatC= 7.95D-07 BMatP= 4.08D-05
 IDIUse=3 WtCom= 9.99D-01 WtEn= 1.42D-03
 Coeff-Com: -0.644D-03 0.222D-02 0.607D-01 0.255D+00 0.683D+00
 Coeff-En:   0.000D+00 0.000D+00 0.000D+00 0.000D+00 0.100D+01
 Coeff:     -0.643D-03 0.221D-02 0.606D-01 0.255D+00 0.683D+00
 Gap=     0.286 Goal=   None    Shift=    0.000
 RMSDP=2.27D-05 MaxDP=2.38D-04 DE=-3.67D-05 OVMax= 2.33D-04

 Cycle   6  Pass 0  IDiag  1:
 E= -438.033950525785     Delta-E=       -0.000000661715 Rises=F Damp=F
 DIIS: error= 1.06D-05 at cycle   6 NSaved=   6.
 NSaved= 6 IEnMin= 6 EnMin= -438.033950525785     IErMin= 6 ErrMin= 1.06D-05
 ErrMax= 1.06D-05  0.00D+00 EMaxC= 1.00D-01 BMatC= 6.63D-09 BMatP= 7.95D-07
 IDIUse=1 WtCom= 1.00D+00 WtEn= 0.00D+00
 Coeff-Com: -0.678D-05-0.412D-03-0.428D-03 0.358D-02 0.884D-01 0.909D+00
 Coeff:     -0.678D-05-0.412D-03-0.428D-03 0.358D-02 0.884D-01 0.909D+00
 Gap=     0.286 Goal=   None    Shift=    0.000
 RMSDP=2.83D-06 MaxDP=2.31D-05 DE=-6.62D-07 OVMax= 2.87D-05

 Initial convergence to 1.0D-05 achieved.  Increase integral accuracy.
 Cycle   7  Pass 1  IDiag  1:
 E= -438.033969586478     Delta-E=       -0.000019060693 Rises=F Damp=F
 DIIS: error= 1.82D-05 at cycle   1 NSaved=   1.
 NSaved= 1 IEnMin= 1 EnMin= -438.033969586478     IErMin= 1 ErrMin= 1.82D-05
 ErrMax= 1.82D-05  0.00D+00 EMaxC= 1.00D-01 BMatC= 1.43D-08 BMatP= 1.43D-08
 IDIUse=1 WtCom= 1.00D+00 WtEn= 0.00D+00
 Coeff-Com:  0.100D+01
 Coeff:      0.100D+01
 Gap=     0.286 Goal=   None    Shift=    0.000
 RMSDP=2.83D-06 MaxDP=2.31D-05 DE=-1.91D-05 OVMax= 4.80D-05

 Cycle   8  Pass 1  IDiag  1:
 E= -438.033969596476     Delta-E=       -0.000000009998 Rises=F Damp=F
 DIIS: error= 3.65D-06 at cycle   2 NSaved=   2.
 NSaved= 2 IEnMin= 2 EnMin= -438.033969596476     IErMin= 2 ErrMin= 3.65D-06
 ErrMax= 3.65D-06  0.00D+00 EMaxC= 1.00D-01 BMatC= 7.87D-10 BMatP= 1.43D-08
 IDIUse=1 WtCom= 1.00D+00 WtEn= 0.00D+00
 Coeff-Com:  0.234D-01 0.977D+00
 Coeff:      0.234D-01 0.977D+00
 Gap=     0.286 Goal=   None    Shift=    0.000
 RMSDP=1.18D-06 MaxDP=1.29D-05 DE=-1.00D-08 OVMax= 1.51D-05

 Cycle   9  Pass 1  IDiag  1:
 E= -438.033969596744     Delta-E=       -0.000000000267 Rises=F Damp=F
 DIIS: error= 2.60D-06 at cycle   3 NSaved=   3.
 NSaved= 3 IEnMin= 3 EnMin= -438.033969596744     IErMin= 3 ErrMin= 2.60D-06
 ErrMax= 2.60D-06  0.00D+00 EMaxC= 1.00D-01 BMatC= 4.58D-10 BMatP= 7.87D-10
 IDIUse=1 WtCom= 1.00D+00 WtEn= 0.00D+00
 Coeff-Com: -0.166D-01 0.440D+00 0.577D+00
 Coeff:     -0.166D-01 0.440D+00 0.577D+00
 Gap=     0.286 Goal=   None    Shift=    0.000
 RMSDP=6.03D-07 MaxDP=5.31D-06 DE=-2.67D-10 OVMax= 7.59D-06

 Cycle  10  Pass 1  IDiag  1:
 E= -438.033969597133     Delta-E=       -0.000000000389 Rises=F Damp=F
 DIIS: error= 4.80D-07 at cycle   4 NSaved=   4.
 NSaved= 4 IEnMin= 4 EnMin= -438.033969597133     IErMin= 4 ErrMin= 4.80D-07
 ErrMax= 4.80D-07  0.00D+00 EMaxC= 1.00D-01 BMatC= 1.10D-11 BMatP= 4.58D-10
 IDIUse=1 WtCom= 1.00D+00 WtEn= 0.00D+00
 Coeff-Com: -0.896D-02 0.170D+00 0.248D+00 0.592D+00
 Coeff:     -0.896D-02 0.170D+00 0.248D+00 0.592D+00
 Gap=     0.286 Goal=   None    Shift=    0.000
 RMSDP=7.35D-08 MaxDP=1.22D-06 DE=-3.89D-10 OVMax= 9.53D-07

 Cycle  11  Pass 1  IDiag  1:
 E= -438.033969597145     Delta-E=       -0.000000000012 Rises=F Damp=F
 DIIS: error= 8.19D-08 at cycle   5 NSaved=   5.
 NSaved= 5 IEnMin= 5 EnMin= -438.033969597145     IErMin= 5 ErrMin= 8.19D-08
 ErrMax= 8.19D-08  0.00D+00 EMaxC= 1.00D-01 BMatC= 3.41D-13 BMatP= 1.10D-11
 IDIUse=1 WtCom= 1.00D+00 WtEn= 0.00D+00
 Coeff-Com: -0.604D-03 0.413D-02 0.691D-02 0.153D+00 0.837D+00
 Coeff:     -0.604D-03 0.413D-02 0.691D-02 0.153D+00 0.837D+00
 Gap=     0.286 Goal=   None    Shift=    0.000
 RMSDP=1.73D-08 MaxDP=1.93D-07 DE=-1.18D-11 OVMax= 1.94D-07

 Cycle  12  Pass 1  IDiag  1:
 E= -438.033969597146     Delta-E=       -0.000000000001 Rises=F Damp=F
 DIIS: error= 1.10D-08 at cycle   6 NSaved=   6.
 NSaved= 6 IEnMin= 6 EnMin= -438.033969597146     IErMin= 6 ErrMin= 1.10D-08
 ErrMax= 1.10D-08  0.00D+00 EMaxC= 1.00D-01 BMatC= 9.01D-15 BMatP= 3.41D-13
 IDIUse=1 WtCom= 1.00D+00 WtEn= 0.00D+00
 Coeff-Com: -0.248D-04-0.327D-02-0.441D-02 0.296D-01 0.244D+00 0.734D+00
 Coeff:     -0.248D-04-0.327D-02-0.441D-02 0.296D-01 0.244D+00 0.734D+00
 Gap=     0.286 Goal=   None    Shift=    0.000
 RMSDP=3.16D-09 MaxDP=4.80D-08 DE=-1.48D-12 OVMax= 2.99D-08

 SCF Done:  E(RPBE1PBE) =  -438.033969597     A.U. after   12 cycles
            NFock= 12  Conv=0.32D-08     -V/T= 1.9971
 KE= 4.393175838216D+02 PE=-1.180172032373D+03 EE= 2.332439773705D+02
 Leave Link  502 at Wed Sep  2 15:36:44 2015, MaxMem=    33554432 cpu:         2.8
 (Enter /group/hpc-share/gaussian/2009D/g09/l601.exe)
 Copying SCF densities to generalized density rwf, IOpCl= 0 IROHF=0.

 **********************************************************************

            Population analysis using the SCF density.

 **********************************************************************

 Orbital symmetries:
       Occupied  (A') (A') (A') (A') (A') (A") (A') (A') (A') (A")
                 (A') (A') (A")
       Virtual   (A') (A') (A") (A') (A') (A') (A') (A') (A") (A')
                 (A") (A') (A") (A') (A") (A') (A") (A') (A') (A')
                 (A') (A') (A') (A") (A") (A') (A') (A") (A') (A")
                 (A') (A')
 The electronic state is 1-A'.
 Alpha  occ. eigenvalues --  -88.92075 -10.22662  -7.95993  -5.90354  -5.89425
 Alpha  occ. eigenvalues --   -5.88725  -0.92498  -0.68941  -0.52308  -0.49184
 Alpha  occ. eigenvalues --   -0.46523  -0.30329  -0.21419
 Alpha virt. eigenvalues --    0.07131   0.10385   0.11388   0.15673   0.21503
 Alpha virt. eigenvalues --    0.31910   0.32875   0.43623   0.44157   0.54177
 Alpha virt. eigenvalues --    0.56794   0.64852   0.65026   0.68922   0.75191
 Alpha virt. eigenvalues --    0.78428   0.83184   0.84329   0.91110   0.93637
 Alpha virt. eigenvalues --    1.26323   1.50807   1.86718   1.87299   2.14016
 Alpha virt. eigenvalues --    2.14264   2.41592   4.64278   4.73130   4.78169
 Alpha virt. eigenvalues --    4.83409   5.01375
          Condensed to atoms (all electrons):
               1          2          3          4          5          6
     1  S   15.733931   0.252785   0.289941  -0.076699  -0.052589  -0.052589
     2  H    0.252785   0.714153   0.006605   0.013118  -0.015756  -0.015756
     3  C    0.289941   0.006605   4.972387   0.410322   0.370952   0.370952
     4  H   -0.076699   0.013118   0.410322   0.507518  -0.019567  -0.019567
     5  H   -0.052589  -0.015756   0.370952  -0.019567   0.606416  -0.032563
     6  H   -0.052589  -0.015756   0.370952  -0.019567  -0.032563   0.606416
 Mulliken charges:
               1
     1  S   -0.094780
     2  H    0.044851
     3  C   -0.421159
     4  H    0.184874
     5  H    0.143107
     6  H    0.143107
 Sum of Mulliken charges =   0.00000
 Mulliken charges with hydrogens summed into heavy atoms:
               1
     1  S   -0.049929
     3  C    0.049929
 Electronic spatial extent (au):  <R**2>=            109.9907
 Charge=              0.0000 electrons
 Dipole moment (field-independent basis, Debye):
    X=              0.9438    Y=              1.3273    Z=              0.0000  Tot=              1.6286
 Quadrupole moment (field-independent basis, Debye-Ang):
   XX=            -18.6179   YY=            -20.7882   ZZ=            -20.9202
   XY=             -1.8084   XZ=              0.0000   YZ=              0.0000
 Traceless Quadrupole moment (field-independent basis, Debye-Ang):
   XX=              1.4909   YY=             -0.6794   ZZ=             -0.8115
   XY=             -1.8084   XZ=              0.0000   YZ=              0.0000
 Octapole moment (field-independent basis, Debye-Ang**2):
  XXX=              0.8722  YYY=             -2.4949  ZZZ=              0.0000  XYY=              1.3140
  XXY=              0.7020  XXZ=              0.0000  XZZ=              1.3564  YZZ=              1.2860
  YYZ=              0.0000  XYZ=              0.0000
 Hexadecapole moment (field-independent basis, Debye-Ang**3):
 XXXX=            -27.8401 YYYY=            -92.6267 ZZZZ=            -30.3729 XXXY=             -1.8181
 XXXZ=              0.0000 YYYX=             -2.5165 YYYZ=              0.0000 ZZZX=              0.0000
 ZZZY=              0.0000 XXYY=            -19.3710 XXZZ=             -9.8123 YYZZ=            -21.2049
 XXYZ=              0.0000 YYXZ=              0.0000 ZZXY=              0.1689
 N-N= 6.957650158416D+01 E-N=-1.180172033024D+03  KE= 4.393175838216D+02
 Symmetry A'   KE= 3.985664879353D+02
 Symmetry A"   KE= 4.075109588624D+01
 No NMR shielding tensors so no spin-rotation constants.
 Leave Link  601 at Wed Sep  2 15:36:44 2015, MaxMem=    33554432 cpu:         1.0
 (Enter /group/hpc-share/gaussian/2009D/g09/l701.exe)
 Compute integral first derivatives.
 ... and contract with generalized density number  0.
 Leave Link  701 at Wed Sep  2 15:36:44 2015, MaxMem=    33554432 cpu:         1.6
 (Enter /group/hpc-share/gaussian/2009D/g09/l702.exe)
 L702 exits ... SP integral derivatives will be done elsewhere.
 Leave Link  702 at Wed Sep  2 15:36:44 2015, MaxMem=    33554432 cpu:         0.2
 (Enter /group/hpc-share/gaussian/2009D/g09/l703.exe)
 Compute integral first derivatives, UseDBF=F ICtDFT=           0.
 Integral derivatives from FoFJK, PRISM(SPDF).
 Calling FoFJK, ICntrl=      2127 FMM=F ISym2X=1 I1Cent= 0 IOpClX= 0 NMat=1 NMatS=1 NMatT=0.
 FoFJK:  IHMeth= 1 ICntrl=    2127 DoSepK=F KAlg= 0 I1Cent=   0 FoldK=F
 IRaf=         0 NMat=   1 IRICut=       1 DoRegI=T DoRafI=F ISym2E= 1.
 FoFCou: FMM=F IPFlag=           0 FMFlag=      100000 FMFlg1=         800
         NFxFlg=           0 DoJE=F BraDBF=F KetDBF=F FulRan=T
         wScrn=  0.000000 ICntrl=    2127 IOpCl=  0 I1Cent=           0 NGrid=           0
         NMat0=    1 NMatS0=      1 NMatT0=    0 NMatD0=    1 NMtDS0=    0 NMtDT0=    0
 Petite list used in FoFCou.
 Leave Link  703 at Wed Sep  2 15:36:45 2015, MaxMem=    33554432 cpu:         1.9
 (Enter /group/hpc-share/gaussian/2009D/g09/l716.exe)
 Dipole        = 3.71323308D-01 5.22196512D-01 0.00000000D+00
 ***** Axes restored to original set *****
 -------------------------------------------------------------------
 Center     Atomic                   Forces (Hartrees/Bohr)
 Number     Number              X              Y              Z
 -------------------------------------------------------------------
      1       16          -0.486266318    0.000000000   -0.506131701
      2        1           0.016083232    0.000000000    0.646247715
      3        6           0.399375875    0.000000000   -0.114317763
      4        1           0.010675978    0.000000000   -0.008231023
      5        1           0.030065616    0.009175181   -0.008783614
      6        1           0.030065616   -0.009175181   -0.008783614
 -------------------------------------------------------------------
 Cartesian Forces:  Max     0.646247715 RMS     0.245560688
 Leave Link  716 at Wed Sep  2 15:36:45 2015, MaxMem=    33554432 cpu:         0.1
 (Enter /group/hpc-share/gaussian/2009D/g09/l103.exe)

 GradGradGradGradGradGradGradGradGradGradGradGradGradGradGradGradGradGrad
 Berny optimization.
 FormGI is forming the generalized inverse of G from B-inverse, IUseBI=4.
 Internal  Forces:  Max     0.646244072 RMS     0.210235832
 Search for a local minimum.
 Step number   1 out of a maximum of   25
 All quantities printed in internal units (Hartrees-Bohrs-Radians)
 RMS Force = .21024D+00 SwitMx=.10000D-02 MixMth= 1
 Mixed Optimization -- RFO/linear search
 Second derivative matrix not updated -- first step.
 The second derivative matrix:
                          R1        R2        R3        R4        R5
           R1           1.18519
           R2           0.00000   1.22235
           R3           0.00000   0.00000   0.34928
           R4           0.00000   0.00000   0.00000   0.34928
           R5           0.00000   0.00000   0.00000   0.00000   0.34928
           A1           0.00000   0.00000   0.00000   0.00000   0.00000
           A2           0.00000   0.00000   0.00000   0.00000   0.00000
           A3           0.00000   0.00000   0.00000   0.00000   0.00000
           A4           0.00000   0.00000   0.00000   0.00000   0.00000
           A5           0.00000   0.00000   0.00000   0.00000   0.00000
           A6           0.00000   0.00000   0.00000   0.00000   0.00000
           A7           0.00000   0.00000   0.00000   0.00000   0.00000
           D1           0.00000   0.00000   0.00000   0.00000   0.00000
           D2           0.00000   0.00000   0.00000   0.00000   0.00000
           D3           0.00000   0.00000   0.00000   0.00000   0.00000
                          A1        A2        A3        A4        A5
           A1           0.16000
           A2           0.00000   0.16000
           A3           0.00000   0.00000   0.16000
           A4           0.00000   0.00000   0.00000   0.16000
           A5           0.00000   0.00000   0.00000   0.00000   0.16000
           A6           0.00000   0.00000   0.00000   0.00000   0.00000
           A7           0.00000   0.00000   0.00000   0.00000   0.00000
           D1           0.00000   0.00000   0.00000   0.00000   0.00000
           D2           0.00000   0.00000   0.00000   0.00000   0.00000
           D3           0.00000   0.00000   0.00000   0.00000   0.00000
                          A6        A7        D1        D2        D3
           A6           0.16000
           A7           0.00000   0.16000
           D1           0.00000   0.00000   0.05662
           D2           0.00000   0.00000   0.00000   0.05662
           D3           0.00000   0.00000   0.00000   0.00000   0.05662
 ITU=  0
     Eigenvalues ---    0.05662   0.12024   0.12024   0.16000   0.16000
     Eigenvalues ---    0.16000   0.16000   0.34928   0.34928   0.34928
     Eigenvalues ---    1.18519   1.22235
 RFO step:  Lambda=-4.16155119D-01 EMin= 5.66153456D-02
 Linear search not attempted -- first point.
 Maximum step size (   0.300) exceeded in Quadratic search.
    -- Step size scaled by   0.581
 Iteration  1 RMS(Cart)=  0.08060080 RMS(Int)=  0.00889420
 Iteration  2 RMS(Cart)=  0.00684935 RMS(Int)=  0.00024645
 Iteration  3 RMS(Cart)=  0.00000725 RMS(Int)=  0.00024635
 Iteration  4 RMS(Cart)=  0.00000000 RMS(Int)=  0.00024635
 ITry= 1 IFail=0 DXMaxC= 2.03D-01 DCOld= 1.00D+10 DXMaxT= 3.00D-01 DXLimC= 3.00D+00 Rises=F
 ClnCor:  largest displacement from symmetrization is 2.53D-13 for atom     6.
 Variable       Old X    -DE/DX   Delta X   Delta X   Delta X     New X
                                 (Linear)    (Quad)   (Total)
    R1        1.79524   0.64624   0.00000   0.23433   0.23433   2.02957
    R2        2.64562   0.49000   0.00000   0.17365   0.17365   2.81926
    R3        2.05791   0.00823   0.00000   0.00624   0.00624   2.06415
    R4        2.05791   0.01874   0.00000   0.01421   0.01421   2.07213
    R5        2.05791   0.01874   0.00000   0.01421   0.01421   2.07213
    A1        1.91063  -0.02887   0.00000  -0.02909  -0.02909   1.88154
    A2        1.91063   0.00028   0.00000  -0.00003  -0.00014   1.91050
    A3        1.91063   0.03267   0.00000   0.03308   0.03271   1.94335
    A4        1.91063   0.03267   0.00000   0.03308   0.03271   1.94335
    A5        1.91063  -0.02170   0.00000  -0.02218  -0.02228   1.88835
    A6        1.91063  -0.02170   0.00000  -0.02218  -0.02228   1.88835
    A7        1.91063  -0.02222   0.00000  -0.02177  -0.02235   1.88828
    D1        3.14159   0.00000   0.00000   0.00000   0.00000   3.14159
    D2       -1.04720  -0.00640   0.00000  -0.00693  -0.00730  -1.05449
    D3        1.04720   0.00640   0.00000   0.00693   0.00730   1.05449
         Item               Value     Threshold  Converged?
 Maximum Force            0.646244     0.000450     NO 
 RMS     Force            0.210236     0.000300     NO 
 Maximum Displacement     0.203463     0.001800     NO 
 RMS     Displacement     0.085299     0.001200     NO 
 Predicted change in Energy=-1.902321D-01
 Lowest energy point so far.  Saving SCF results.
 GradGradGradGradGradGradGradGradGradGradGradGradGradGradGradGradGradGrad

 Leave Link  103 at Wed Sep  2 15:36:45 2015, MaxMem=    33554432 cpu:         0.0
 (Enter /group/hpc-share/gaussian/2009D/g09/l202.exe)
                          Input orientation:                          
 ---------------------------------------------------------------------
 Center     Atomic      Atomic             Coordinates (Angstroms)
 Number     Number       Type             X           Y           Z
 ---------------------------------------------------------------------
      1         16           0       -0.077640    0.000000   -0.016298
      2          1           0       -0.068872    0.000000    1.057668
      3          6           0        1.339024    0.000000   -0.484053
      4          1           0        1.361731    0.000000   -1.576121
      5          1           0        1.876103    0.888176   -0.130431
      6          1           0        1.876103   -0.888176   -0.130431
 ---------------------------------------------------------------------
                    Distance matrix (angstroms):
                    1          2          3          4          5
     1  S    0.000000
     2  H    1.074002   0.000000
     3  C    1.491889   2.087840   0.000000
     4  H    2.122460   2.997244   1.092304   0.000000
     5  H    2.149185   2.446091   1.096522   1.772980   0.000000
     6  H    2.149185   2.446091   1.096522   1.772980   1.776353
                    6
     6  H    0.000000
 Stoichiometry    CH4S
 Framework group  CS[SG(CH2S),X(H2)]
 Deg. of freedom     8
 Full point group                 CS      NOp   2
 RotChk:  IX=0 Diff= 2.96D-02
 Largest Abelian subgroup         CS      NOp   2
 Largest concise Abelian subgroup CS      NOp   2
                         Standard orientation:                         
 ---------------------------------------------------------------------
 Center     Atomic      Atomic             Coordinates (Angstroms)
 Number     Number       Type             X           Y           Z
 ---------------------------------------------------------------------
      1         16           0       -0.038502   -0.548493    0.000000
      2          1           0        0.984062   -0.876889    0.000000
      3          6           0       -0.038502    0.943396    0.000000
      4          1           0       -1.068386    1.307357    0.000000
      5          1           0        0.465682    1.342522    0.888176
      6          1           0        0.465682    1.342522   -0.888176
 ---------------------------------------------------------------------
 Rotational constants (GHZ):    121.0556226     18.1456431     17.5199562
 Leave Link  202 at Wed Sep  2 15:36:45 2015, MaxMem=    33554432 cpu:         0.0
 (Enter /group/hpc-share/gaussian/2009D/g09/l301.exe)
 Basis read from rwf:  (5D, 7F)
 No pseudopotential information found on rwf file.
 There are    35 symmetry adapted cartesian basis functions of A'  symmetry.
 There are    13 symmetry adapted cartesian basis functions of A"  symmetry.
 There are    32 symmetry adapted basis functions of A'  symmetry.
 There are    13 symmetry adapted basis functions of A"  symmetry.
    45 basis functions,    84 primitive gaussians,    48 cartesian basis functions
    13 alpha electrons       13 beta electrons
       nuclear repulsion energy        65.5258925049 Hartrees.
 IExCor= 1009 DFT=T Ex+Corr=PBE1PBE ExCW=0 ScaHFX=  0.250000
 ScaDFX=  0.750000  0.750000  1.000000  1.000000 ScalE2=  1.000000  1.000000
 IRadAn=      0 IRanWt=     -1 IRanGd=            0 ICorTp=0 IEmpDi=  4
 NAtoms=    6 NActive=    6 NUniq=    5 SFac= 1.44D+00 NAtFMM=   60 NAOKFM=F Big=F
 Integral buffers will be    131072 words long.
 Raffenetti 2 integral format.
 Two-electron integral symmetry is turned on.
 No density basis found on file   724.
 Leave Link  301 at Wed Sep  2 15:36:45 2015, MaxMem=    33554432 cpu:         0.6
 (Enter /group/hpc-share/gaussian/2009D/g09/l302.exe)
 NPDir=0 NMtPBC=     1 NCelOv=     1 NCel=       1 NClECP=     1 NCelD=      1
         NCelK=      1 NCelE2=     1 NClLst=     1 CellRange=     0.0.
 One-electron integrals computed using PRISM.
 One-electron integral symmetry used in STVInt
 NBasis=    45 RedAO= T EigKep=  7.07D-03  NBF=    32    13
 NBsUse=    45 1.00D-06 EigRej= -1.00D+00 NBFU=    32    13
 Precomputing XC quadrature grid using
 IXCGrd= 4 IRadAn=           0 IRanWt=          -1 IRanGd=           0 AccXCQ= 0.00D+00.
 Generated NRdTot=       0 NPtTot=           0 NUsed=           0 NTot=          32
 NSgBfM=    48    48    48    48    48 MxSgAt=     6 MxSgA2=     6.
 Leave Link  302 at Wed Sep  2 15:36:45 2015, MaxMem=    33554432 cpu:         1.6
 (Enter /group/hpc-share/gaussian/2009D/g09/l303.exe)
 DipDrv:  MaxL=1.
 Leave Link  303 at Wed Sep  2 15:36:45 2015, MaxMem=    33554432 cpu:         0.2
 (Enter /group/hpc-share/gaussian/2009D/g09/l401.exe)
 Initial guess from the checkpoint file:  "methanethiol.chk"
 B after Tr=     0.000000    0.000000    0.000000
         Rot=    0.999994    0.000000    0.000000   -0.003597 Ang=  -0.41 deg.
 Guess basis will be translated and rotated to current coordinates.
 JPrj=2 DoOrth=T DoCkMO=T.
 Initial guess orbital symmetries:
       Occupied  (A') (A') (A') (A') (A') (A") (A') (A') (A') (A")
                 (A') (A') (A")
       Virtual   (A') (A') (A') (A') (A') (A') (A') (A') (A') (A')
                 (A') (A') (A') (A') (A') (A') (A') (A') (A') (A')
                 (A') (A') (A") (A") (A") (A") (A") (A") (A") (A")
                 (A") (A")
 The electronic state of the initial guess is 1-A'.
 Generating alternative initial guess.
 ExpMin= 1.22D-01 ExpMax= 9.18D+03 ExpMxC= 1.38D+03 IAcc=1 IRadAn=         1 AccDes= 0.00D+00
 Harris functional with IExCor= 1009 and IRadAn=       1 diagonalized for initial guess.
 HarFok:  IExCor= 1009 AccDes= 0.00D+00 IRadAn=         1 IDoV= 1 UseB2=F ITyADJ=14
 ICtDFT=  3500011 ScaDFX=  1.000000  1.000000  1.000000  1.000000
 FoFCou: FMM=F IPFlag=           0 FMFlag=      100000 FMFlg1=           0
         NFxFlg=           0 DoJE=T BraDBF=F KetDBF=T FulRan=T
         wScrn=  0.000000 ICntrl=     500 IOpCl=  0 I1Cent=   200000004 NGrid=           0
         NMat0=    1 NMatS0=      1 NMatT0=    0 NMatD0=    1 NMtDS0=    0 NMtDT0=    0
 Petite list used in FoFCou.
 Harris En= -438.181620207200    
 Leave Link  401 at Wed Sep  2 15:36:46 2015, MaxMem=    33554432 cpu:         1.9
 (Enter /group/hpc-share/gaussian/2009D/g09/l502.exe)
 Closed shell SCF:
 Using DIIS extrapolation, IDIIS=  1040.
 Integral symmetry usage will be decided dynamically.
 Keep R1 ints in memory in symmetry-blocked form, NReq=1434035.
 IVT=       26286 IEndB=       26286 NGot=    33554432 MDV=    33246890
 LenX=    33246890 LenY=    33244145
 Requested convergence on RMS density matrix=1.00D-08 within 128 cycles.
 Requested convergence on MAX density matrix=1.00D-06.
 Requested convergence on             energy=1.00D-06.
 No special actions if energy rises.
 FoFCou: FMM=F IPFlag=           0 FMFlag=           0 FMFlg1=           0
         NFxFlg=           0 DoJE=F BraDBF=F KetDBF=F FulRan=T
         wScrn=  0.000000 ICntrl=     600 IOpCl=  0 I1Cent=           0 NGrid=           0
         NMat0=    1 NMatS0=   1035 NMatT0=    0 NMatD0=    1 NMtDS0=    0 NMtDT0=    0
 Petite list used in FoFCou.
 Integral accuracy reduced to 1.0D-05 until final iterations.

 Cycle   1  Pass 0  IDiag  1:
 E= -438.204834824977    
 DIIS: error= 8.11D-03 at cycle   1 NSaved=   1.
 NSaved= 1 IEnMin= 1 EnMin= -438.204834824977     IErMin= 1 ErrMin= 8.11D-03
 ErrMax= 8.11D-03  0.00D+00 EMaxC= 1.00D-01 BMatC= 8.17D-03 BMatP= 8.17D-03
 IDIUse=3 WtCom= 9.19D-01 WtEn= 8.11D-02
 Coeff-Com:  0.100D+01
 Coeff-En:   0.100D+01
 Coeff:      0.100D+01
 Gap=     0.489 Goal=   None    Shift=    0.000
 GapD=    0.489 DampG=2.000 DampE=1.000 DampFc=2.0000 IDamp=-1.
 RMSDP=3.55D-03 MaxDP=3.81D-02              OVMax= 2.73D-02

 Cycle   2  Pass 0  IDiag  1:
 E= -438.210958727013     Delta-E=       -0.006123902036 Rises=F Damp=F
 DIIS: error= 3.44D-03 at cycle   2 NSaved=   2.
 NSaved= 2 IEnMin= 2 EnMin= -438.210958727013     IErMin= 2 ErrMin= 3.44D-03
 ErrMax= 3.44D-03  0.00D+00 EMaxC= 1.00D-01 BMatC= 9.28D-04 BMatP= 8.17D-03
 IDIUse=3 WtCom= 9.66D-01 WtEn= 3.44D-02
 Coeff-Com:  0.169D+00 0.831D+00
 Coeff-En:   0.000D+00 0.100D+01
 Coeff:      0.164D+00 0.836D+00
 Gap=     0.295 Goal=   None    Shift=    0.000
 RMSDP=1.11D-03 MaxDP=1.38D-02 DE=-6.12D-03 OVMax= 1.35D-02

 Cycle   3  Pass 0  IDiag  1:
 E= -438.211459537628     Delta-E=       -0.000500810615 Rises=F Damp=F
 DIIS: error= 2.77D-03 at cycle   3 NSaved=   3.
 NSaved= 3 IEnMin= 3 EnMin= -438.211459537628     IErMin= 3 ErrMin= 2.77D-03
 ErrMax= 2.77D-03  0.00D+00 EMaxC= 1.00D-01 BMatC= 4.01D-04 BMatP= 9.28D-04
 IDIUse=3 WtCom= 9.72D-01 WtEn= 2.77D-02
 Coeff-Com:  0.511D-02 0.394D+00 0.601D+00
 Coeff-En:   0.000D+00 0.282D+00 0.718D+00
 Coeff:      0.496D-02 0.391D+00 0.604D+00
 Gap=     0.294 Goal=   None    Shift=    0.000
 RMSDP=3.98D-04 MaxDP=6.33D-03 DE=-5.01D-04 OVMax= 6.19D-03

 Cycle   4  Pass 0  IDiag  1:
 E= -438.211832872647     Delta-E=       -0.000373335019 Rises=F Damp=F
 DIIS: error= 3.62D-04 at cycle   4 NSaved=   4.
 NSaved= 4 IEnMin= 4 EnMin= -438.211832872647     IErMin= 4 ErrMin= 3.62D-04
 ErrMax= 3.62D-04  0.00D+00 EMaxC= 1.00D-01 BMatC= 1.18D-05 BMatP= 4.01D-04
 IDIUse=3 WtCom= 9.96D-01 WtEn= 3.62D-03
 Coeff-Com: -0.328D-02 0.133D+00 0.256D+00 0.615D+00
 Coeff-En:   0.000D+00 0.000D+00 0.000D+00 0.100D+01
 Coeff:     -0.327D-02 0.132D+00 0.255D+00 0.616D+00
 Gap=     0.294 Goal=   None    Shift=    0.000
 RMSDP=1.02D-04 MaxDP=9.36D-04 DE=-3.73D-04 OVMax= 1.38D-03

 Cycle   5  Pass 0  IDiag  1:
 E= -438.211844423196     Delta-E=       -0.000011550549 Rises=F Damp=F
 DIIS: error= 8.37D-05 at cycle   5 NSaved=   5.
 NSaved= 5 IEnMin= 5 EnMin= -438.211844423196     IErMin= 5 ErrMin= 8.37D-05
 ErrMax= 8.37D-05  0.00D+00 EMaxC= 1.00D-01 BMatC= 3.05D-07 BMatP= 1.18D-05
 IDIUse=1 WtCom= 1.00D+00 WtEn= 0.00D+00
 Coeff-Com: -0.114D-02 0.921D-02 0.311D-01 0.177D+00 0.784D+00
 Coeff:     -0.114D-02 0.921D-02 0.311D-01 0.177D+00 0.784D+00
 Gap=     0.294 Goal=   None    Shift=    0.000
 RMSDP=1.62D-05 MaxDP=1.79D-04 DE=-1.16D-05 OVMax= 1.75D-04

 Cycle   6  Pass 0  IDiag  1:
 E= -438.211844688458     Delta-E=       -0.000000265262 Rises=F Damp=F
 DIIS: error= 5.01D-06 at cycle   6 NSaved=   6.
 NSaved= 6 IEnMin= 6 EnMin= -438.211844688458     IErMin= 6 ErrMin= 5.01D-06
 ErrMax= 5.01D-06  0.00D+00 EMaxC= 1.00D-01 BMatC= 2.05D-09 BMatP= 3.05D-07
 IDIUse=1 WtCom= 1.00D+00 WtEn= 0.00D+00
 Coeff-Com: -0.408D-04-0.273D-02-0.255D-02 0.124D-01 0.885D-01 0.904D+00
 Coeff:     -0.408D-04-0.273D-02-0.255D-02 0.124D-01 0.885D-01 0.904D+00
 Gap=     0.294 Goal=   None    Shift=    0.000
 RMSDP=2.04D-06 MaxDP=1.57D-05 DE=-2.65D-07 OVMax= 2.20D-05

 Initial convergence to 1.0D-05 achieved.  Increase integral accuracy.
 Cycle   7  Pass 1  IDiag  1:
 E= -438.211855387398     Delta-E=       -0.000010698940 Rises=F Damp=F
 DIIS: error= 1.53D-05 at cycle   1 NSaved=   1.
 NSaved= 1 IEnMin= 1 EnMin= -438.211855387398     IErMin= 1 ErrMin= 1.53D-05
 ErrMax= 1.53D-05  0.00D+00 EMaxC= 1.00D-01 BMatC= 1.05D-08 BMatP= 1.05D-08
 IDIUse=1 WtCom= 1.00D+00 WtEn= 0.00D+00
 Coeff-Com:  0.100D+01
 Coeff:      0.100D+01
 Gap=     0.294 Goal=   None    Shift=    0.000
 RMSDP=2.04D-06 MaxDP=1.57D-05 DE=-1.07D-05 OVMax= 3.89D-05

 Cycle   8  Pass 1  IDiag  1:
 E= -438.211855396411     Delta-E=       -0.000000009013 Rises=F Damp=F
 DIIS: error= 2.50D-06 at cycle   2 NSaved=   2.
 NSaved= 2 IEnMin= 2 EnMin= -438.211855396411     IErMin= 2 ErrMin= 2.50D-06
 ErrMax= 2.50D-06  0.00D+00 EMaxC= 1.00D-01 BMatC= 4.65D-10 BMatP= 1.05D-08
 IDIUse=1 WtCom= 1.00D+00 WtEn= 0.00D+00
 Coeff-Com:  0.406D-01 0.959D+00
 Coeff:      0.406D-01 0.959D+00
 Gap=     0.294 Goal=   None    Shift=    0.000
 RMSDP=1.20D-06 MaxDP=2.05D-05 DE=-9.01D-09 OVMax= 8.85D-06

 Cycle   9  Pass 1  IDiag  1:
 E= -438.211855396705     Delta-E=       -0.000000000294 Rises=F Damp=F
 DIIS: error= 1.65D-06 at cycle   3 NSaved=   3.
 NSaved= 3 IEnMin= 3 EnMin= -438.211855396705     IErMin= 3 ErrMin= 1.65D-06
 ErrMax= 1.65D-06  0.00D+00 EMaxC= 1.00D-01 BMatC= 1.86D-10 BMatP= 4.65D-10
 IDIUse=1 WtCom= 1.00D+00 WtEn= 0.00D+00
 Coeff-Com: -0.141D-01 0.382D+00 0.632D+00
 Coeff:     -0.141D-01 0.382D+00 0.632D+00
 Gap=     0.294 Goal=   None    Shift=    0.000
 RMSDP=4.05D-07 MaxDP=6.11D-06 DE=-2.94D-10 OVMax= 3.96D-06

 Cycle  10  Pass 1  IDiag  1:
 E= -438.211855396879     Delta-E=       -0.000000000174 Rises=F Damp=F
 DIIS: error= 2.90D-07 at cycle   4 NSaved=   4.
 NSaved= 4 IEnMin= 4 EnMin= -438.211855396879     IErMin= 4 ErrMin= 2.90D-07
 ErrMax= 2.90D-07  0.00D+00 EMaxC= 1.00D-01 BMatC= 4.77D-12 BMatP= 1.86D-10
 IDIUse=1 WtCom= 1.00D+00 WtEn= 0.00D+00
 Coeff-Com: -0.606D-02 0.955D-01 0.194D+00 0.717D+00
 Coeff:     -0.606D-02 0.955D-01 0.194D+00 0.717D+00
 Gap=     0.294 Goal=   None    Shift=    0.000
 RMSDP=5.81D-08 MaxDP=9.45D-07 DE=-1.74D-10 OVMax= 8.04D-07

 Cycle  11  Pass 1  IDiag  1:
 E= -438.211855396879     Delta-E=        0.000000000000 Rises=F Damp=F
 DIIS: error= 1.38D-07 at cycle   5 NSaved=   5.
 NSaved= 5 IEnMin= 4 EnMin= -438.211855396879     IErMin= 5 ErrMin= 1.38D-07
 ErrMax= 1.38D-07  0.00D+00 EMaxC= 1.00D-01 BMatC= 1.02D-12 BMatP= 4.77D-12
 IDIUse=1 WtCom= 1.00D+00 WtEn= 0.00D+00
 Coeff-Com: -0.135D-02 0.975D-02 0.279D-01 0.336D+00 0.628D+00
 Coeff:     -0.135D-02 0.975D-02 0.279D-01 0.336D+00 0.628D+00
 Gap=     0.294 Goal=   None    Shift=    0.000
 RMSDP=2.53D-08 MaxDP=3.24D-07 DE= 2.27D-13 OVMax= 2.79D-07

 Cycle  12  Pass 1  IDiag  1:
 E= -438.211855396881     Delta-E=       -0.000000000002 Rises=F Damp=F
 DIIS: error= 1.47D-08 at cycle   6 NSaved=   6.
 NSaved= 6 IEnMin= 6 EnMin= -438.211855396881     IErMin= 6 ErrMin= 1.47D-08
 ErrMax= 1.47D-08  0.00D+00 EMaxC= 1.00D-01 BMatC= 9.56D-15 BMatP= 1.02D-12
 IDIUse=1 WtCom= 1.00D+00 WtEn= 0.00D+00
 Coeff-Com: -0.125D-03-0.253D-02-0.247D-02 0.429D-01 0.144D+00 0.818D+00
 Coeff:     -0.125D-03-0.253D-02-0.247D-02 0.429D-01 0.144D+00 0.818D+00
 Gap=     0.294 Goal=   None    Shift=    0.000
 RMSDP=2.93D-09 MaxDP=1.77D-08 DE=-2.22D-12 OVMax= 3.87D-08

 SCF Done:  E(RPBE1PBE) =  -438.211855397     A.U. after   12 cycles
            NFock= 12  Conv=0.29D-08     -V/T= 1.9994
 KE= 4.384738526859D+02 PE=-1.171698054393D+03 EE= 2.294864538057D+02
 Leave Link  502 at Wed Sep  2 15:36:46 2015, MaxMem=    33554432 cpu:         3.0
 (Enter /group/hpc-share/gaussian/2009D/g09/l701.exe)
 Compute integral first derivatives.
 ... and contract with generalized density number  0.
 Leave Link  701 at Wed Sep  2 15:36:46 2015, MaxMem=    33554432 cpu:         1.1
 (Enter /group/hpc-share/gaussian/2009D/g09/l702.exe)
 L702 exits ... SP integral derivatives will be done elsewhere.
 Leave Link  702 at Wed Sep  2 15:36:46 2015, MaxMem=    33554432 cpu:         0.1
 (Enter /group/hpc-share/gaussian/2009D/g09/l703.exe)
 Compute integral first derivatives, UseDBF=F ICtDFT=           0.
 Integral derivatives from FoFJK, PRISM(SPDF).
 Calling FoFJK, ICntrl=      2127 FMM=F ISym2X=1 I1Cent= 0 IOpClX= 0 NMat=1 NMatS=1 NMatT=0.
 FoFJK:  IHMeth= 1 ICntrl=    2127 DoSepK=F KAlg= 0 I1Cent=   0 FoldK=F
 IRaf=         0 NMat=   1 IRICut=       1 DoRegI=T DoRafI=F ISym2E= 1.
 FoFCou: FMM=F IPFlag=           0 FMFlag=      100000 FMFlg1=         800
         NFxFlg=           0 DoJE=F BraDBF=F KetDBF=F FulRan=T
         wScrn=  0.000000 ICntrl=    2127 IOpCl=  0 I1Cent=           0 NGrid=           0
         NMat0=    1 NMatS0=      1 NMatT0=    0 NMatD0=    1 NMtDS0=    0 NMtDT0=    0
 Petite list used in FoFCou.
 Leave Link  703 at Wed Sep  2 15:36:47 2015, MaxMem=    33554432 cpu:         1.9
 (Enter /group/hpc-share/gaussian/2009D/g09/l716.exe)
 Dipole        = 3.79761959D-01 5.01944368D-01-2.22044605D-16
 ***** Axes restored to original set *****
 -------------------------------------------------------------------
 Center     Atomic                   Forces (Hartrees/Bohr)
 Number     Number              X              Y              Z
 -------------------------------------------------------------------
      1       16          -0.295033498    0.000000000   -0.232594480
      2        1           0.016312683    0.000000000    0.304174147
      3        6           0.238666810    0.000000000   -0.053171998
      4        1           0.004694440    0.000000000   -0.006053214
      5        1           0.017679782    0.005005436   -0.006177228
      6        1           0.017679782   -0.005005436   -0.006177228
 -------------------------------------------------------------------
 Cartesian Forces:  Max     0.304174147 RMS     0.127917581
 Leave Link  716 at Wed Sep  2 15:36:47 2015, MaxMem=    33554432 cpu:         0.2
 (Enter /group/hpc-share/gaussian/2009D/g09/l103.exe)

 GradGradGradGradGradGradGradGradGradGradGradGradGradGradGradGradGradGrad
 Berny optimization.
 Using GEDIIS/GDIIS optimizer.
 FormGI is forming the generalized inverse of G from B-inverse, IUseBI=4.
 Internal  Forces:  Max     0.304292258 RMS     0.108752879
 Search for a local minimum.
 Step number   2 out of a maximum of   25
 All quantities printed in internal units (Hartrees-Bohrs-Radians)
 RMS Force = .10875D+00 SwitMx=.10000D-02 MixMth= 1
 Mixed Optimization -- RFO/linear search
 Update second derivatives using D2CorX and points    1    2
 DE= -1.78D-01 DEPred=-1.90D-01 R= 9.35D-01
 TightC=F SS=  1.41D+00  RLast= 3.00D-01 DXNew= 5.0454D-01 9.0046D-01
 Trust test= 9.35D-01 RLast= 3.00D-01 DXMaxT set to 5.05D-01
 The second derivative matrix:
                          R1        R2        R3        R4        R5
           R1           1.43349
           R2           0.01908   1.13566
           R3           0.00019  -0.00090   0.34928
           R4           0.00999   0.00364   0.00004   0.34959
           R5           0.00999   0.00364   0.00004   0.00031   0.34959
           A1           0.01021   0.00820   0.00008   0.00017   0.00017
           A2           0.01128   0.00670   0.00007   0.00026   0.00026
           A3           0.02360   0.01158   0.00012   0.00063   0.00063
           A4           0.02360   0.01158   0.00012   0.00063   0.00063
           A5          -0.01740  -0.00868  -0.00009  -0.00046  -0.00046
           A6          -0.01740  -0.00868  -0.00009  -0.00046  -0.00046
           A7          -0.01766  -0.00883  -0.00009  -0.00047  -0.00047
           D1           0.00000   0.00000   0.00000   0.00000   0.00000
           D2          -0.00183  -0.00090  -0.00001  -0.00005  -0.00005
           D3           0.00183   0.00090   0.00001   0.00005   0.00005
                          A1        A2        A3        A4        A5
           A1           0.15979
           A2          -0.00003   0.16013
           A3           0.00015   0.00043   0.16116
           A4           0.00015   0.00043   0.00116   0.16116
           A5          -0.00010  -0.00030  -0.00084  -0.00084   0.16061
           A6          -0.00010  -0.00030  -0.00084  -0.00084   0.00061
           A7          -0.00010  -0.00031  -0.00085  -0.00085   0.00062
           D1           0.00000   0.00000   0.00000   0.00000   0.00000
           D2          -0.00001  -0.00003  -0.00009  -0.00009   0.00007
           D3           0.00001   0.00003   0.00009   0.00009  -0.00007
                          A6        A7        D1        D2        D3
           A6           0.16061
           A7           0.00062   0.16062
           D1           0.00000   0.00000   0.05662
           D2           0.00007   0.00007   0.00000   0.05662
           D3          -0.00007  -0.00007   0.00000  -0.00001   0.05662
 ITU=  1  0
 Use linear search instead of GDIIS.
 Linear search step of   0.600 exceeds DXMaxT=   0.505 but not scaled.
 Quartic linear search produced a step of  2.00000.
 Iteration  1 RMS(Cart)=  0.09246141 RMS(Int)=  0.07900777
 Iteration  2 RMS(Cart)=  0.06694379 RMS(Int)=  0.01770364
 Iteration  3 RMS(Cart)=  0.01421465 RMS(Int)=  0.00138845
 Iteration  4 RMS(Cart)=  0.00006338 RMS(Int)=  0.00138792
 Iteration  5 RMS(Cart)=  0.00000000 RMS(Int)=  0.00138792
 ITry= 1 IFail=0 DXMaxC= 3.97D-01 DCOld= 1.00D+10 DXMaxT= 5.05D-01 DXLimC= 3.00D+00 Rises=F
 ClnCor:  largest displacement from symmetrization is 8.61D-10 for atom     6.
 Variable       Old X    -DE/DX   Delta X   Delta X   Delta X     New X
                                 (Linear)    (Quad)   (Total)
    R1        2.02957   0.30429   0.46866   0.00000   0.46866   2.49823
    R2        2.81926   0.28711   0.34729   0.00000   0.34729   3.16655
    R3        2.06415   0.00615   0.01249   0.00000   0.01249   2.07664
    R4        2.07213   0.01072   0.02843   0.00000   0.02843   2.10055
    R5        2.07213   0.01072   0.02843   0.00000   0.02843   2.10055
    A1        1.88154  -0.02806  -0.05818   0.00000  -0.05818   1.82336
    A2        1.91050  -0.00356  -0.00027   0.00000  -0.00069   1.90980
    A3        1.94335   0.01974   0.06543   0.00000   0.06325   2.00659
    A4        1.94335   0.01974   0.06543   0.00000   0.06325   2.00659
    A5        1.88835  -0.01244  -0.04457   0.00000  -0.04494   1.84341
    A6        1.88835  -0.01244  -0.04457   0.00000  -0.04494   1.84341
    A7        1.88828  -0.01286  -0.04470   0.00000  -0.04795   1.84033
    D1        3.14159   0.00000   0.00000   0.00000   0.00000   3.14159
    D2       -1.05449  -0.00539  -0.01459   0.00000  -0.01664  -1.07113
    D3        1.05449   0.00539   0.01459   0.00000   0.01664   1.07113
         Item               Value     Threshold  Converged?
 Maximum Force            0.304292     0.000450     NO 
 RMS     Force            0.108753     0.000300     NO 
 Maximum Displacement     0.396865     0.001800     NO 
 RMS     Displacement     0.166610     0.001200     NO 
 Predicted change in Energy=-1.487386D-02
 Lowest energy point so far.  Saving SCF results.
 GradGradGradGradGradGradGradGradGradGradGradGradGradGradGradGradGradGrad

 Leave Link  103 at Wed Sep  2 15:36:47 2015, MaxMem=    33554432 cpu:         0.3
 (Enter /group/hpc-share/gaussian/2009D/g09/l202.exe)
                          Input orientation:                          
 ---------------------------------------------------------------------
 Center     Atomic      Atomic             Coordinates (Angstroms)
 Number     Number       Type             X           Y           Z
 ---------------------------------------------------------------------
      1         16           0       -0.234223    0.000000   -0.053841
      2          1           0       -0.198390    0.000000    1.267680
      3          6           0        1.376338    0.000000   -0.516393
      4          1           0        1.441502    0.000000   -1.613371
      5          1           0        1.960611    0.884476   -0.181871
      6          1           0        1.960611   -0.884476   -0.181871
 ---------------------------------------------------------------------
                    Distance matrix (angstroms):
                    1          2          3          4          5
     1  S    0.000000
     2  H    1.322006   0.000000
     3  C    1.675668   2.379640   0.000000
     4  H    2.289146   3.315071   1.098911   0.000000
     5  H    2.369807   2.746776   1.111565   1.760955   0.000000
     6  H    2.369807   2.746776   1.111565   1.760955   1.768951
                    6
     6  H    0.000000
 Stoichiometry    CH4S
 Framework group  CS[SG(CH2S),X(H2)]
 Deg. of freedom     8
 Full point group                 CS      NOp   2
 RotChk:  IX=0 Diff= 5.55D-02
 Largest Abelian subgroup         CS      NOp   2
 Largest concise Abelian subgroup CS      NOp   2
                         Standard orientation:                         
 ---------------------------------------------------------------------
 Center     Atomic      Atomic             Coordinates (Angstroms)
 Number     Number       Type             X           Y           Z
 ---------------------------------------------------------------------
      1         16           0       -0.046512   -0.617483    0.000000
      2          1           0        1.233554   -0.947835    0.000000
      3          6           0       -0.046512    1.058185    0.000000
      4          1           0       -1.082880    1.423627    0.000000
      5          1           0        0.436296    1.527415    0.884476
      6          1           0        0.436296    1.527415   -0.884476
 ---------------------------------------------------------------------
 Rotational constants (GHZ):    107.3783608     14.5874228     13.9616346
 Leave Link  202 at Wed Sep  2 15:36:47 2015, MaxMem=    33554432 cpu:         0.0
 (Enter /group/hpc-share/gaussian/2009D/g09/l301.exe)
 Basis read from rwf:  (5D, 7F)
 No pseudopotential information found on rwf file.
 There are    35 symmetry adapted cartesian basis functions of A'  symmetry.
 There are    13 symmetry adapted cartesian basis functions of A"  symmetry.
 There are    32 symmetry adapted basis functions of A'  symmetry.
 There are    13 symmetry adapted basis functions of A"  symmetry.
    45 basis functions,    84 primitive gaussians,    48 cartesian basis functions
    13 alpha electrons       13 beta electrons
       nuclear repulsion energy        58.9470976461 Hartrees.
 IExCor= 1009 DFT=T Ex+Corr=PBE1PBE ExCW=0 ScaHFX=  0.250000
 ScaDFX=  0.750000  0.750000  1.000000  1.000000 ScalE2=  1.000000  1.000000
 IRadAn=      0 IRanWt=     -1 IRanGd=            0 ICorTp=0 IEmpDi=  4
 NAtoms=    6 NActive=    6 NUniq=    5 SFac= 1.44D+00 NAtFMM=   60 NAOKFM=F Big=F
 Integral buffers will be    131072 words long.
 Raffenetti 2 integral format.
 Two-electron integral symmetry is turned on.
 No density basis found on file   724.
 Leave Link  301 at Wed Sep  2 15:36:47 2015, MaxMem=    33554432 cpu:         0.6
 (Enter /group/hpc-share/gaussian/2009D/g09/l302.exe)
 NPDir=0 NMtPBC=     1 NCelOv=     1 NCel=       1 NClECP=     1 NCelD=      1
         NCelK=      1 NCelE2=     1 NClLst=     1 CellRange=     0.0.
 One-electron integrals computed using PRISM.
 One-electron integral symmetry used in STVInt
 NBasis=    45 RedAO= T EigKep=  1.17D-02  NBF=    32    13
 NBsUse=    45 1.00D-06 EigRej= -1.00D+00 NBFU=    32    13
 Precomputing XC quadrature grid using
 IXCGrd= 4 IRadAn=           0 IRanWt=          -1 IRanGd=           0 AccXCQ= 0.00D+00.
 Generated NRdTot=       0 NPtTot=           0 NUsed=           0 NTot=          32
 NSgBfM=    48    48    48    48    48 MxSgAt=     6 MxSgA2=     6.
 Leave Link  302 at Wed Sep  2 15:36:47 2015, MaxMem=    33554432 cpu:         1.6
 (Enter /group/hpc-share/gaussian/2009D/g09/l303.exe)
 DipDrv:  MaxL=1.
 Leave Link  303 at Wed Sep  2 15:36:47 2015, MaxMem=    33554432 cpu:         0.3
 (Enter /group/hpc-share/gaussian/2009D/g09/l401.exe)
 Initial guess from the checkpoint file:  "methanethiol.chk"
 B after Tr=     0.000000    0.000000    0.000000
         Rot=    0.999977    0.000000    0.000000   -0.006799 Ang=  -0.78 deg.
 Guess basis will be translated and rotated to current coordinates.
 JPrj=2 DoOrth=T DoCkMO=T.
 Initial guess orbital symmetries:
       Occupied  (A') (A') (A') (A') (A') (A") (A') (A') (A') (A")
                 (A') (A') (A")
       Virtual   (A') (A') (A') (A') (A') (A') (A') (A') (A') (A')
                 (A') (A') (A') (A') (A') (A') (A') (A') (A') (A')
                 (A') (A') (A") (A") (A") (A") (A") (A") (A") (A")
                 (A") (A")
 The electronic state of the initial guess is 1-A'.
 Generating alternative initial guess.
 ExpMin= 1.22D-01 ExpMax= 9.18D+03 ExpMxC= 1.38D+03 IAcc=1 IRadAn=         1 AccDes= 0.00D+00
 Harris functional with IExCor= 1009 and IRadAn=       1 diagonalized for initial guess.
 HarFok:  IExCor= 1009 AccDes= 0.00D+00 IRadAn=         1 IDoV= 1 UseB2=F ITyADJ=14
 ICtDFT=  3500011 ScaDFX=  1.000000  1.000000  1.000000  1.000000
 FoFCou: FMM=F IPFlag=           0 FMFlag=      100000 FMFlg1=           0
         NFxFlg=           0 DoJE=T BraDBF=F KetDBF=T FulRan=T
         wScrn=  0.000000 ICntrl=     500 IOpCl=  0 I1Cent=   200000004 NGrid=           0
         NMat0=    1 NMatS0=      1 NMatT0=    0 NMatD0=    1 NMtDS0=    0 NMtDT0=    0
 Petite list used in FoFCou.
 Harris En= -438.287576511181    
 Leave Link  401 at Wed Sep  2 15:36:48 2015, MaxMem=    33554432 cpu:         1.7
 (Enter /group/hpc-share/gaussian/2009D/g09/l502.exe)
 Closed shell SCF:
 Using DIIS extrapolation, IDIIS=  1040.
 Integral symmetry usage will be decided dynamically.
 Keep R1 ints in memory in symmetry-blocked form, NReq=1434035.
 IVT=       26286 IEndB=       26286 NGot=    33554432 MDV=    33246890
 LenX=    33246890 LenY=    33244145
 Requested convergence on RMS density matrix=1.00D-08 within 128 cycles.
 Requested convergence on MAX density matrix=1.00D-06.
 Requested convergence on             energy=1.00D-06.
 No special actions if energy rises.
 FoFCou: FMM=F IPFlag=           0 FMFlag=           0 FMFlg1=           0
         NFxFlg=           0 DoJE=F BraDBF=F KetDBF=F FulRan=T
         wScrn=  0.000000 ICntrl=     600 IOpCl=  0 I1Cent=           0 NGrid=           0
         NMat0=    1 NMatS0=   1035 NMatT0=    0 NMatD0=    1 NMtDS0=    0 NMtDT0=    0
 Petite list used in FoFCou.
 Integral accuracy reduced to 1.0D-05 until final iterations.

 Cycle   1  Pass 0  IDiag  1:
 E= -438.311566665394    
 DIIS: error= 1.36D-02 at cycle   1 NSaved=   1.
 NSaved= 1 IEnMin= 1 EnMin= -438.311566665394     IErMin= 1 ErrMin= 1.36D-02
 ErrMax= 1.36D-02  0.00D+00 EMaxC= 1.00D-01 BMatC= 1.97D-02 BMatP= 1.97D-02
 IDIUse=3 WtCom= 8.64D-01 WtEn= 1.36D-01
 Coeff-Com:  0.100D+01
 Coeff-En:   0.100D+01
 Coeff:      0.100D+01
 Recover alternate guess density for next cycle.
 RMSDP=7.13D-03 MaxDP=6.39D-02              OVMax= 0.00D+00

 Cycle   2  Pass 0  IDiag  1:
 E= -438.278028097220     Delta-E=        0.033538568174 Rises=F Damp=F
 Switch densities from cycles 1 and 2 for lowest energy.
 DIIS: error= 3.61D-02 at cycle   2 NSaved=   2.
[...]
 DIIS: error= 2.30D-07 at cycle   5 NSaved=   5.
 NSaved= 5 IEnMin= 5 EnMin= -438.341957576031     IErMin= 5 ErrMin= 2.30D-07
 ErrMax= 2.30D-07  0.00D+00 EMaxC= 1.00D-01 BMatC= 3.06D-12 BMatP= 4.74D-11
 IDIUse=1 WtCom= 1.00D+00 WtEn= 0.00D+00
 Coeff-Com: -0.246D-03-0.352D-02 0.461D-02 0.213D+00 0.786D+00
 Coeff:     -0.246D-03-0.352D-02 0.461D-02 0.213D+00 0.786D+00
 Gap=     0.279 Goal=   None    Shift=    0.000
 RMSDP=4.86D-08 MaxDP=4.39D-07 DE=-3.90D-11 OVMax= 8.81D-07

 Cycle   6  Pass 1  IDiag  1:
 E= -438.341957576035     Delta-E=       -0.000000000004 Rises=F Damp=F
 DIIS: error= 7.20D-08 at cycle   6 NSaved=   6.
 NSaved= 6 IEnMin= 6 EnMin= -438.341957576035     IErMin= 6 ErrMin= 7.20D-08
 ErrMax= 7.20D-08  0.00D+00 EMaxC= 1.00D-01 BMatC= 2.84D-13 BMatP= 3.06D-12
 IDIUse=1 WtCom= 1.00D+00 WtEn= 0.00D+00
 Coeff-Com:  0.588D-04-0.241D-02-0.305D-02 0.624D-01 0.330D+00 0.613D+00
 Coeff:      0.588D-04-0.241D-02-0.305D-02 0.624D-01 0.330D+00 0.613D+00
 Gap=     0.279 Goal=   None    Shift=    0.000
 RMSDP=1.41D-08 MaxDP=1.68D-07 DE=-3.58D-12 OVMax= 2.04D-07

 Cycle   7  Pass 1  IDiag  1:
 E= -438.341957576034     Delta-E=        0.000000000001 Rises=F Damp=F
 DIIS: error= 1.76D-08 at cycle   7 NSaved=   7.
 NSaved= 7 IEnMin= 6 EnMin= -438.341957576035     IErMin= 7 ErrMin= 1.76D-08
 ErrMax= 1.76D-08  0.00D+00 EMaxC= 1.00D-01 BMatC= 1.49D-14 BMatP= 2.84D-13
 IDIUse=1 WtCom= 1.00D+00 WtEn= 0.00D+00
 Coeff-Com:  0.387D-04-0.872D-03-0.140D-02 0.165D-01 0.987D-01 0.257D+00
 Coeff-Com:  0.630D+00
 Coeff:      0.387D-04-0.872D-03-0.140D-02 0.165D-01 0.987D-01 0.257D+00
 Coeff:      0.630D+00
 Gap=     0.279 Goal=   None    Shift=    0.000
 RMSDP=2.97D-09 MaxDP=4.32D-08 DE= 1.08D-12 OVMax= 5.04D-08

 SCF Done:  E(RPBE1PBE) =  -438.341957576     A.U. after    7 cycles
            NFock=  7  Conv=0.30D-08     -V/T= 2.0027
 KE= 4.371670983347D+02 PE=-1.152473427355D+03 EE= 2.205962636524D+02
 Leave Link  502 at Wed Sep  2 15:37:01 2015, MaxMem=    33554432 cpu:         2.8
 (Enter /group/hpc-share/gaussian/2009D/g09/l701.exe)
 Compute integral first derivatives.
 ... and contract with generalized density number  0.
 Leave Link  701 at Wed Sep  2 15:37:01 2015, MaxMem=    33554432 cpu:         0.9
 (Enter /group/hpc-share/gaussian/2009D/g09/l702.exe)
 L702 exits ... SP integral derivatives will be done elsewhere.
 Leave Link  702 at Wed Sep  2 15:37:01 2015, MaxMem=    33554432 cpu:         0.1
 (Enter /group/hpc-share/gaussian/2009D/g09/l703.exe)
 Compute integral first derivatives, UseDBF=F ICtDFT=           0.
 Integral derivatives from FoFJK, PRISM(SPDF).
 Calling FoFJK, ICntrl=      2127 FMM=F ISym2X=1 I1Cent= 0 IOpClX= 0 NMat=1 NMatS=1 NMatT=0.
 FoFJK:  IHMeth= 1 ICntrl=    2127 DoSepK=F KAlg= 0 I1Cent=   0 FoldK=F
 IRaf=         0 NMat=   1 IRICut=       1 DoRegI=T DoRafI=F ISym2E= 1.
 FoFCou: FMM=F IPFlag=           0 FMFlag=      100000 FMFlg1=         800
         NFxFlg=           0 DoJE=F BraDBF=F KetDBF=F FulRan=T
         wScrn=  0.000000 ICntrl=    2127 IOpCl=  0 I1Cent=           0 NGrid=           0
         NMat0=    1 NMatS0=      1 NMatT0=    0 NMatD0=    1 NMtDS0=    0 NMtDT0=    0
 Petite list used in FoFCou.
 Leave Link  703 at Wed Sep  2 15:37:01 2015, MaxMem=    33554432 cpu:         1.7
 (Enter /group/hpc-share/gaussian/2009D/g09/l716.exe)
 Dipole        = 3.36982773D-01 5.08810521D-01 2.22044605D-16
 ***** Axes restored to original set *****
 -------------------------------------------------------------------
 Center     Atomic                   Forces (Hartrees/Bohr)
 Number     Number              X              Y              Z
 -------------------------------------------------------------------
      1       16           0.000045366    0.000000000   -0.000022649
      2        1           0.000001386    0.000000000    0.000003032
      3        6          -0.000063792    0.000000000    0.000031003
      4        1           0.000014132    0.000000000   -0.000011841
      5        1           0.000001453   -0.000002493    0.000000228
      6        1           0.000001453    0.000002493    0.000000228
 -------------------------------------------------------------------
 Cartesian Forces:  Max     0.000063792 RMS     0.000021042
 Leave Link  716 at Wed Sep  2 15:37:01 2015, MaxMem=    33554432 cpu:         0.1
 (Enter /group/hpc-share/gaussian/2009D/g09/l103.exe)

 GradGradGradGradGradGradGradGradGradGradGradGradGradGradGradGradGradGrad
 Berny optimization.
 Using GEDIIS/GDIIS optimizer.
 FormGI is forming the generalized inverse of G from B-inverse, IUseBI=4.
 Internal  Forces:  Max     0.000052726 RMS     0.000015169
 Search for a local minimum.
 Step number  10 out of a maximum of   25
 All quantities printed in internal units (Hartrees-Bohrs-Radians)
 RMS Force = .15169D-04 SwitMx=.10000D-02 MixMth= 2
 Mixed Optimization -- En-DIIS/RFO-DIIS
 Swapping is turned off.
 Update second derivatives using D2CorX and points    3    4    5    6    7
                                                      8    9   10
 DE= -2.20D-06 DEPred=-2.12D-06 R= 1.04D+00
 TightC=F SS=  1.41D+00  RLast= 5.88D-03 DXNew= 1.4270D+00 1.7644D-02
 Trust test= 1.04D+00 RLast= 5.88D-03 DXMaxT set to 8.49D-01
 The second derivative matrix:
                          R1        R2        R3        R4        R5
           R1           0.27985
           R2           0.02422   0.27015
           R3          -0.00026   0.00964   0.35214
           R4           0.00586   0.01407  -0.00131   0.34775
           R5           0.00586   0.01407  -0.00131  -0.00154   0.34775
           A1           0.00188   0.03966   0.00983   0.00141   0.00141
           A2           0.01140   0.02230   0.00306  -0.00120  -0.00120
           A3           0.00081   0.03001  -0.00244  -0.00254  -0.00254
           A4           0.00081   0.03001  -0.00244  -0.00254  -0.00254
           A5           0.00071  -0.02599  -0.00028   0.00227   0.00227
           A6           0.00071  -0.02599  -0.00028   0.00227   0.00227
           A7          -0.01408  -0.03172   0.00311   0.00228   0.00228
           D1           0.00000   0.00000   0.00000   0.00000   0.00000
           D2          -0.00128  -0.00221   0.00141  -0.00060  -0.00060
           D3           0.00128   0.00221  -0.00141   0.00060   0.00060
                          A1        A2        A3        A4        A5
           A1           0.23425
           A2           0.02798   0.16870
           A3          -0.00443  -0.00408   0.15605
           A4          -0.00443  -0.00408  -0.00395   0.15605
           A5          -0.01093  -0.00224   0.00481   0.00481   0.15769
           A6          -0.01093  -0.00224   0.00481   0.00481  -0.00231
           A7           0.00603   0.00522   0.00292   0.00292  -0.00404
           D1           0.00000   0.00000   0.00000   0.00000   0.00000
           D2           0.01269   0.00462  -0.00221  -0.00221  -0.00055
           D3          -0.01269  -0.00462   0.00221   0.00221   0.00055
                          A6        A7        D1        D2        D3
           A6           0.15769
           A7          -0.00404   0.15705
           D1           0.00000   0.00000   0.05662
           D2          -0.00055   0.00183   0.00000   0.05840
           D3           0.00055  -0.00183   0.00000  -0.00178   0.05840
 ITU=  1  1  1  1  1  1  1  0  1  0
     Eigenvalues ---    0.05662   0.10847   0.11780   0.12177   0.15949
     Eigenvalues ---    0.16000   0.22766   0.26972   0.31883   0.34928
     Eigenvalues ---    0.35286   0.36143
 En-DIIS/RFO-DIIS IScMMF=        0 using points:    10    9    8
 RFO step:  Lambda= 0.00000000D+00.
 NNeg= 0 NP= 3 Switch=  2.50D-03 Rises=F DC=  3.12D-05 SmlDif=  1.00D-05
 RMS Error=  0.3431152813D-04 NUsed= 3 EDIIS=F
 DidBck=F Rises=F RFO-DIIS coefs:    1.08460   -0.10178    0.01719
 Iteration  1 RMS(Cart)=  0.00007154 RMS(Int)=  0.00000014
 Iteration  2 RMS(Cart)=  0.00000000 RMS(Int)=  0.00000014
 ITry= 1 IFail=0 DXMaxC= 1.76D-04 DCOld= 1.00D+10 DXMaxT= 8.49D-01 DXLimC= 3.00D+00 Rises=F
 ClnCor:  largest displacement from symmetrization is 1.15D-13 for atom     6.
 Variable       Old X    -DE/DX   Delta X   Delta X   Delta X     New X
                                 (Linear)    (Quad)   (Total)
    R1        2.55387   0.00001   0.00009  -0.00005   0.00003   2.55391
    R2        3.40796  -0.00005  -0.00021  -0.00005  -0.00026   3.40770
    R3        2.08261   0.00001   0.00003   0.00002   0.00005   2.08265
    R4        2.08309   0.00000   0.00002  -0.00002   0.00001   2.08310
    R5        2.08309   0.00000   0.00002  -0.00002   0.00001   2.08310
    A1        1.69175  -0.00001   0.00002  -0.00005  -0.00003   1.69173
    A2        1.85438   0.00001   0.00006   0.00006   0.00013   1.85450
    A3        1.95676   0.00000   0.00010  -0.00004   0.00007   1.95683
    A4        1.95676   0.00000   0.00010  -0.00004   0.00007   1.95683
    A5        1.88774  -0.00001  -0.00009   0.00000  -0.00009   1.88765
    A6        1.88774  -0.00001  -0.00009   0.00000  -0.00009   1.88765
    A7        1.91693   0.00000  -0.00011   0.00002  -0.00009   1.91684
    D1        3.14159   0.00000   0.00000   0.00000   0.00000   3.14159
    D2       -1.08283   0.00000  -0.00001   0.00002   0.00001  -1.08283
    D3        1.08283   0.00000   0.00001  -0.00002  -0.00001   1.08283
         Item               Value     Threshold  Converged?
 Maximum Force            0.000053     0.000450     YES
 RMS     Force            0.000015     0.000300     YES
 Maximum Displacement     0.000176     0.001800     YES
 RMS     Displacement     0.000072     0.001200     YES
 Predicted change in Energy=-8.819988D-09
 Optimization completed.
    -- Stationary point found.
                           ----------------------------
                           !   Optimized Parameters   !
                           ! (Angstroms and Degrees)  !
 --------------------------                            --------------------------
 ! Name  Definition              Value          Derivative Info.                !
 --------------------------------------------------------------------------------
 ! R1    R(1,2)                  1.3515         -DE/DX =    0.0                 !
 ! R2    R(1,3)                  1.8034         -DE/DX =   -0.0001              !
 ! R3    R(3,4)                  1.1021         -DE/DX =    0.0                 !
 ! R4    R(3,5)                  1.1023         -DE/DX =    0.0                 !
 ! R5    R(3,6)                  1.1023         -DE/DX =    0.0                 !
 ! A1    A(2,1,3)               96.9304         -DE/DX =    0.0                 !
 ! A2    A(1,3,4)              106.2479         -DE/DX =    0.0                 !
 ! A3    A(1,3,5)              112.1143         -DE/DX =    0.0                 !
 ! A4    A(1,3,6)              112.1143         -DE/DX =    0.0                 !
 ! A5    A(4,3,5)              108.1594         -DE/DX =    0.0                 !
 ! A6    A(4,3,6)              108.1594         -DE/DX =    0.0                 !
 ! A7    A(5,3,6)              109.8319         -DE/DX =    0.0                 !
 ! D1    D(2,1,3,4)            180.0            -DE/DX =    0.0                 !
 ! D2    D(2,1,3,5)            -62.0417         -DE/DX =    0.0                 !
 ! D3    D(2,1,3,6)             62.0417         -DE/DX =    0.0                 !
 --------------------------------------------------------------------------------
 Lowest energy point so far.  Saving SCF results.
 GradGradGradGradGradGradGradGradGradGradGradGradGradGradGradGradGradGrad

 Largest change from initial coordinates is atom    2       0.312 Angstoms.
 Leave Link  103 at Wed Sep  2 15:37:01 2015, MaxMem=    33554432 cpu:         0.0
 (Enter /group/hpc-share/gaussian/2009D/g09/l202.exe)
                          Input orientation:                          
 ---------------------------------------------------------------------
 Center     Atomic      Atomic             Coordinates (Angstroms)
 Number     Number       Type             X           Y           Z
 ---------------------------------------------------------------------
      1         16           0       -0.321805    0.000000   -0.069378
      2          1           0       -0.141400    0.000000    1.269978
      3          6           0        1.423362    0.000000   -0.524015
      4          1           0        1.455022    0.000000   -1.625629
      5          1           0        1.945636    0.902043   -0.165311
      6          1           0        1.945636   -0.902043   -0.165311
 ---------------------------------------------------------------------
                    Distance matrix (angstroms):
                    1          2          3          4          5
     1  S    0.000000
     2  H    1.351451   0.000000
     3  C    1.803414   2.380523   0.000000
     4  H    2.361997   3.306525   1.102069   0.000000
     5  H    2.442165   2.688764   1.102325   1.785193   0.000000
     6  H    2.442165   2.688764   1.102325   1.785193   1.804086
                    6
     6  H    0.000000
 Stoichiometry    CH4S
 Framework group  CS[SG(CH2S),X(H2)]
 Deg. of freedom     8
 Full point group                 CS      NOp   2
 RotChk:  IX=0 Diff= 1.74D-15
 Largest Abelian subgroup         CS      NOp   2
 Largest concise Abelian subgroup CS      NOp   2
                         Standard orientation:                         
 ---------------------------------------------------------------------
 Center     Atomic      Atomic             Coordinates (Angstroms)
 Number     Number       Type             X           Y           Z
 ---------------------------------------------------------------------
      1         16           0       -0.047734   -0.661768    0.000000
      2          1           0        1.293843   -0.824838    0.000000
      3          6           0       -0.047734    1.141646    0.000000
      4          1           0       -1.105787    1.449998    0.000000
      5          1           0        0.431048    1.556623    0.902043
      6          1           0        0.431048    1.556623   -0.902043
 ---------------------------------------------------------------------
 Rotational constants (GHZ):    101.5187403     13.0519497     12.5036358
 Leave Link  202 at Wed Sep  2 15:37:01 2015, MaxMem=    33554432 cpu:         0.0
 (Enter /group/hpc-share/gaussian/2009D/g09/l601.exe)
 Copying SCF densities to generalized density rwf, IOpCl= 0 IROHF=0.

 **********************************************************************

            Population analysis using the SCF density.

 **********************************************************************

 Orbital symmetries:
       Occupied  (A') (A') (A') (A') (A') (A") (A') (A') (A') (A")
                 (A') (A') (A")
       Virtual   (A') (A') (A') (A') (A") (A') (A') (A") (A') (A')
                 (A") (A') (A') (A") (A') (A') (A") (A') (A") (A')
                 (A') (A') (A") (A') (A') (A") (A') (A") (A') (A")
                 (A') (A')
 The electronic state is 1-A'.
 Alpha  occ. eigenvalues --  -88.99146 -10.25478  -7.99412  -5.93668  -5.93308
 Alpha  occ. eigenvalues --   -5.92575  -0.79802  -0.65459  -0.46310  -0.44107
 Alpha  occ. eigenvalues --   -0.40394  -0.34234  -0.24262
 Alpha virt. eigenvalues --    0.03671   0.07717   0.10936   0.13096   0.13306
 Alpha virt. eigenvalues --    0.34979   0.41691   0.42016   0.43064   0.48531
 Alpha virt. eigenvalues --    0.61046   0.67886   0.68212   0.68294   0.70626
 Alpha virt. eigenvalues --    0.71470   0.71897   0.79337   0.80604   0.82758
 Alpha virt. eigenvalues --    0.99065   1.07591   1.70368   1.72702   2.10284
 Alpha virt. eigenvalues --    2.12151   2.12909   4.62055   4.66775   4.68693
 Alpha virt. eigenvalues --    4.72473   4.88334
          Condensed to atoms (all electrons):
               1          2          3          4          5          6
     1  S   15.734390   0.279958   0.277613  -0.033917  -0.029943  -0.029943
     2  H    0.279958   0.591712  -0.019033   0.004051  -0.004228  -0.004228
     3  C    0.277613  -0.019033   5.058406   0.385453   0.380124   0.380124
     4  H   -0.033917   0.004051   0.385453   0.506985  -0.017996  -0.017996
     5  H   -0.029943  -0.004228   0.380124  -0.017996   0.528162  -0.023947
     6  H   -0.029943  -0.004228   0.380124  -0.017996  -0.023947   0.528162
 Mulliken charges:
               1
     1  S   -0.198157
     2  H    0.151769
     3  C   -0.462687
     4  H    0.173419
     5  H    0.167828
     6  H    0.167828
 Sum of Mulliken charges =   0.00000
 Mulliken charges with hydrogens summed into heavy atoms:
               1
     1  S   -0.046388
     3  C    0.046388
 Electronic spatial extent (au):  <R**2>=            143.4288
 Charge=              0.0000 electrons
 Dipole moment (field-independent basis, Debye):
    X=              0.8565    Y=              1.2933    Z=              0.0000  Tot=              1.5512
 Quadrupole moment (field-independent basis, Debye-Ang):
   XX=            -18.9804   YY=            -20.2141   ZZ=            -22.1048
   XY=             -1.3364   XZ=              0.0000   YZ=              0.0000
 Traceless Quadrupole moment (field-independent basis, Debye-Ang):
   XX=              1.4527   YY=              0.2190   ZZ=             -1.6717
   XY=             -1.3364   XZ=              0.0000   YZ=              0.0000
 Octapole moment (field-independent basis, Debye-Ang**2):
  XXX=              0.9284  YYY=             -0.7960  ZZZ=              0.0000  XYY=              1.3930
  XXY=             -0.3515  XXZ=              0.0000  XZZ=              0.9394  YZZ=              1.9763
  YYZ=              0.0000  XYZ=              0.0000
 Hexadecapole moment (field-independent basis, Debye-Ang**3):
 XXXX=            -33.0088 YYYY=           -130.4655 ZZZZ=            -32.5037 XXXY=             -0.5631
 XXXZ=              0.0000 YYYX=              0.7377 YYYZ=              0.0000 ZZZX=              0.0000
 ZZZY=              0.0000 XXYY=            -26.4357 XXZZ=            -11.5436 YYZZ=            -27.1769
 XXYZ=              0.0000 YYXZ=              0.0000 ZZXY=              1.4470
 N-N= 5.636810779231D+01 E-N=-1.152473427906D+03  KE= 4.371670983347D+02
 Symmetry A'   KE= 3.966118514234D+02
 Symmetry A"   KE= 4.055524691123D+01
 No NMR shielding tensors so no spin-rotation constants.
 Leave Link  601 at Wed Sep  2 15:37:01 2015, MaxMem=    33554432 cpu:         1.7
 (Enter /group/hpc-share/gaussian/2009D/g09/l9999.exe)
 B after Tr=     0.334088    0.000000    0.130516
         Rot=    0.999617    0.000000   -0.027687    0.000000 Ang=  -3.17 deg.
 Final structure in terms of initial Z-matrix:
 S
 H,1,hs2
 C,1,cs3,2,csh3
 H,3,hc4,1,hcs4,2,dih4,0
 H,3,hc5,1,hcs5,4,dih5,0
 H,3,hc6,1,hcs6,4,dih6,0
      Variables:
 hs2=1.35145139
 cs3=1.80341379
 csh3=96.93038845
 hc4=1.10206932
 hcs4=106.24789737
 dih4=180.
 hc5=1.10232494
 hcs5=112.11433228
 dih5=117.95827105
 hc6=1.10232494
 hcs6=112.11433228
 dih6=-117.95827105
 1\1\GINC-HPC-CN12\FOpt\RPBE1PBE\Gen\C1H4S1\6498IVANOVM\02-Sep-2015\0\\
 #P PBE1PBE/gen opt\\methanethiol\\0,1\S,-0.3328298654,0.,-0.0873880846
 \H,-0.1524251781,0.,1.2519681066\C,1.4123368879,0.,-0.542024537\H,1.44
 39971393,0.,-1.6436389948\H,1.9346106939,0.9020431431,-0.1833205876\H,
 1.9346106939,-0.9020431431,-0.1833205876\\Version=EM64L-G09RevD.01\Sta
 te=1-A'\HF=-438.3419576\RMSD=2.971e-09\RMSF=2.104e-05\Dipole=0.5773294
 ,0.,0.1978289\Quadrupole=-0.2636463,-1.2428804,1.5065267,0.,-0.64352,0
 .\PG=CS [SG(C1H2S1),X(H2)]\\@


 ALL MY ATTEMPTS TO ADAPT THE THEORETICAL FOUNDATIONS OF PHYSICS
 TO THESE NEW NOTIONS FAILED COMPLETELY. IT WAS AS IF THE GROUND HAD
 BEEN PULLED OUT FROM UNDER ONE WITH NO FIRM FOUNDATION TO BE SEEN ANYWHERE,
 UPON WHICH ONE COULD HAVE BUILT.  -- A.EINSTEIN
 Job cpu time:       0 days  0 hours  1 minutes 58.4 seconds.
 File lengths (MBytes):  RWF=      5 Int=      0 D2E=      0 Chk=      1 Scr=      1
 Normal termination of Gaussian 09 at Wed Sep  2 15:37:02 2015.
