 Entering Gaussian System, Link 0=g09
 Input=methanethiol.com
 Output=methanethiol.log
 AtFile(1): methanethiol.zmat
             s
             h   1 hs2
             c    1 cs3         2 csh3
             h    3 hc4         1 hcs4          2 dih4
             h    3 hc5         1 hcs5          4 dih5
             h    3 hc6         1 hcs6          4 dih6
            
            hs2         0.950000
            cs3         1.400000
            csh3        109.471
            hc4         1.089000
            hcs4        109.471
            dih4        180.000
            hc5         1.089000
            hcs5        109.471
            dih5        120.000
            hc6         1.089000
            hcs6        109.471
            dih6        240.000
            
            
 Initial command:
 /group/hpc-share/gaussian/2009D/g09/l1.exe "/scratch/gaussian/g_methanethiol.com-809484.hn1.marqnet.mu.edu/Gau-5227.inp" -scrdir="/scratch/gaussian/g_methanethiol.com-809484.hn1.marqnet.mu.edu/"
 Entering Link 1 = /group/hpc-share/gaussian/2009D/g09/l1.exe PID=      5228.
  
 Copyright (c) 1988,1990,1992,1993,1995,1998,2003,2009,2013,
            Gaussian, Inc.  All Rights Reserved.
  
 This is part of the Gaussian(R) 09 program.  It is based on
 the Gaussian(R) 03 system (copyright 2003, Gaussian, Inc.),
 the Gaussian(R) 98 system (copyright 1998, Gaussian, Inc.),
 the Gaussian(R) 94 system (copyright 1995, Gaussian, Inc.),
 the Gaussian 92(TM) system (copyright 1992, Gaussian, Inc.),
 the Gaussian 90(TM) system (copyright 1990, Gaussian, Inc.),
 the Gaussian 88(TM) system (copyright 1988, Gaussian, Inc.),
 the Gaussian 86(TM) system (copyright 1986, Carnegie Mellon
 University), and the Gaussian 82(TM) system (copyright 1983,
 Carnegie Mellon University). Gaussian is a federally registered
 trademark of Gaussian, Inc.
  
 This software contains proprietary and confidential information,
 including trade secrets, belonging to Gaussian, Inc.
  
 This software is provided under written license and may be
 used, copied, transmitted, or stored only in accord with that
 written license.
  
 The following legend is applicable only to US Government
 contracts under FAR:
  
                    RESTRICTED RIGHTS LEGEND
  
 Use, reproduction and disclosure by the US Government is
 subject to restrictions as set forth in subparagraphs (a)
 and (c) of the Commercial Computer Software - Restricted
 Rights clause in FAR 52.227-19.
  
 Gaussian, Inc.
 340 Quinnipiac St., Bldg. 40, Wallingford CT 06492
  
  
 ---------------------------------------------------------------
 Warning -- This program may not be used in any manner that
 competes with the business of Gaussian, Inc. or will provide
 assistance to any competitor of Gaussian, Inc.  The licensee
 of this program is prohibited from giving any competitor of
 Gaussian, Inc. access to this program.  By using this program,
 the user acknowledges that Gaussian, Inc. is engaged in the
 business of creating and licensing software in the field of
 computational chemistry and represents and warrants to the
 licensee that it is not a competitor of Gaussian, Inc. and that
 it will not use this program in any manner prohibited above.
 ---------------------------------------------------------------
  

 Cite this work as:
 Gaussian 09, Revision D.01,
 M. J. Frisch, G. W. Trucks, H. B. Schlegel, G. E. Scuseria, 
 M. A. Robb, J. R. Cheeseman, G. Scalmani, V. Barone, B. Mennucci, 
 G. A. Petersson, H. Nakatsuji, M. Caricato, X. Li, H. P. Hratchian, 
 A. F. Izmaylov, J. Bloino, G. Zheng, J. L. Sonnenberg, M. Hada, 
 M. Ehara, K. Toyota, R. Fukuda, J. Hasegawa, M. Ishida, T. Nakajima, 
 Y. Honda, O. Kitao, H. Nakai, T. Vreven, J. A. Montgomery, Jr., 
 J. E. Peralta, F. Ogliaro, M. Bearpark, J. J. Heyd, E. Brothers, 
 K. N. Kudin, V. N. Staroverov, T. Keith, R. Kobayashi, J. Normand, 
 K. Raghavachari, A. Rendell, J. C. Burant, S. S. Iyengar, J. Tomasi, 
 M. Cossi, N. Rega, J. M. Millam, M. Klene, J. E. Knox, J. B. Cross, 
 V. Bakken, C. Adamo, J. Jaramillo, R. Gomperts, R. E. Stratmann, 
 O. Yazyev, A. J. Austin, R. Cammi, C. Pomelli, J. W. Ochterski, 
 R. L. Martin, K. Morokuma, V. G. Zakrzewski, G. A. Voth, 
 P. Salvador, J. J. Dannenberg, S. Dapprich, A. D. Daniels, 
 O. Farkas, J. B. Foresman, J. V. Ortiz, J. Cioslowski, 
 and D. J. Fox, Gaussian, Inc., Wallingford CT, 2013.
 
 ******************************************
 Gaussian 09:  EM64L-G09RevD.01 24-Apr-2013
                 2-Sep-2015 
 ******************************************
 %nproc=8
 Will use up to    8 processors via shared memory.
 %chk=methanethiol.chk
 ------------------------
 #P b3lyp/aug-cc-pvdz opt
 ------------------------
 1/14=-1,18=20,19=15,26=3,38=1/1,3;
 2/9=110,12=2,17=6,18=5,40=1/2;
 3/5=16,7=10,11=2,16=1,25=1,30=1,71=1,74=-5/1,2,3;
 4//1;
 5/5=2,38=5/2;
 6/7=2,8=2,9=2,10=2,28=1/1;
 7//1,2,3,16;
 1/14=-1,18=20,19=15,26=3/3(2);
 2/9=110/2;
 99//99;
 2/9=110/2;
 3/5=16,7=10,11=2,16=1,25=1,30=1,71=1,74=-5/1,2,3;
 4/5=5,16=3,69=1/1;
 5/5=2,38=5/2;
 7//1,2,3,16;
 1/14=-1,18=20,19=15,26=3/3(-5);
 2/9=110/2;
 6/7=2,8=2,9=2,10=2,19=2,28=1/1;
 99/9=1/99;
 Leave Link    1 at Wed Sep  2 14:55:47 2015, MaxMem=           0 cpu:         0.7
 (Enter /group/hpc-share/gaussian/2009D/g09/l101.exe)
 ------------
 methanethiol
 ------------
 Symbolic Z-matrix:
 Charge =  0 Multiplicity = 1
 s
 h                    1    hs2
 c                    1    cs3      2    csh3
 h                    3    hc4      1    hcs4     2    dih4     0
 h                    3    hc5      1    hcs5     4    dih5     0
 h                    3    hc6      1    hcs6     4    dih6     0
       Variables:
  hs2                   0.95                     
  cs3                   1.4                      
  csh3                109.471                    
  hc4                   1.089                    
  hcs4                109.471                    
  dih4                180.                       
  hc5                   1.089                    
  hcs5                109.471                    
  dih5                120.                       
  hc6                   1.089                    
  hcs6                109.471                    
  dih6                240.                       
 
     4 tetrahedral angles replaced.
 NAtoms=      6 NQM=        6 NQMF=       0 NMMI=      0 NMMIF=      0
                NMic=       0 NMicF=      0.
                    Isotopes and Nuclear Properties:
 (Nuclear quadrupole moments (NQMom) in fm**2, nuclear magnetic moments (NMagM)
  in nuclear magnetons)

  Atom         1           2           3           4           5           6
 IAtWgt=          32           1          12           1           1           1
 AtmWgt=  31.9720718   1.0078250  12.0000000   1.0078250   1.0078250   1.0078250
 NucSpn=           0           1           0           1           1           1
 AtZEff=   0.0000000   0.0000000   0.0000000   0.0000000   0.0000000   0.0000000
 NQMom=    0.0000000   0.0000000   0.0000000   0.0000000   0.0000000   0.0000000
 NMagM=    0.0000000   2.7928460   0.0000000   2.7928460   2.7928460   2.7928460
 AtZNuc=  16.0000000   1.0000000   6.0000000   1.0000000   1.0000000   1.0000000
 Leave Link  101 at Wed Sep  2 14:55:47 2015, MaxMem=    33554432 cpu:         1.0
 (Enter /group/hpc-share/gaussian/2009D/g09/l103.exe)

 GradGradGradGradGradGradGradGradGradGradGradGradGradGradGradGradGradGrad
 Berny optimization.
 Initialization pass.
                           ----------------------------
                           !    Initial Parameters    !
                           ! (Angstroms and Degrees)  !
 --------------------------                            --------------------------
 ! Name  Definition              Value          Derivative Info.                !
 --------------------------------------------------------------------------------
 ! R1    R(1,2)                  0.95           estimate D2E/DX2                !
 ! R2    R(1,3)                  1.4            estimate D2E/DX2                !
 ! R3    R(3,4)                  1.089          estimate D2E/DX2                !
 ! R4    R(3,5)                  1.089          estimate D2E/DX2                !
 ! R5    R(3,6)                  1.089          estimate D2E/DX2                !
 ! A1    A(2,1,3)              109.4712         estimate D2E/DX2                !
 ! A2    A(1,3,4)              109.4712         estimate D2E/DX2                !
 ! A3    A(1,3,5)              109.4712         estimate D2E/DX2                !
 ! A4    A(1,3,6)              109.4712         estimate D2E/DX2                !
 ! A5    A(4,3,5)              109.4712         estimate D2E/DX2                !
 ! A6    A(4,3,6)              109.4712         estimate D2E/DX2                !
 ! A7    A(5,3,6)              109.4712         estimate D2E/DX2                !
 ! D1    D(2,1,3,4)            180.0            estimate D2E/DX2                !
 ! D2    D(2,1,3,5)            -60.0            estimate D2E/DX2                !
 ! D3    D(2,1,3,6)             60.0            estimate D2E/DX2                !
 --------------------------------------------------------------------------------
 Trust Radius=3.00D-01 FncErr=1.00D-07 GrdErr=1.00D-06
 Number of steps in this run=     25 maximum allowed number of steps=    100.
 GradGradGradGradGradGradGradGradGradGradGradGradGradGradGradGradGradGrad

 Leave Link  103 at Wed Sep  2 14:55:47 2015, MaxMem=    33554432 cpu:         0.0
 (Enter /group/hpc-share/gaussian/2009D/g09/l202.exe)
                          Input orientation:                          
 ---------------------------------------------------------------------
 Center     Atomic      Atomic             Coordinates (Angstroms)
 Number     Number       Type             X           Y           Z
 ---------------------------------------------------------------------
      1         16           0        0.000000    0.000000    0.000000
      2          1           0        0.000000    0.000000    0.950000
      3          6           0        1.319933    0.000000   -0.466667
      4          1           0        1.319933    0.000000   -1.555667
      5          1           0        1.833292    0.889165   -0.103667
      6          1           0        1.833292   -0.889165   -0.103667
 ---------------------------------------------------------------------
                    Distance matrix (angstroms):
                    1          2          3          4          5
     1  S    0.000000
     2  H    0.950000   0.000000
     3  C    1.400000   1.936276   0.000000
     4  H    2.040177   2.832064   1.089000   0.000000
     5  H    2.040177   2.293859   1.089000   1.778330   0.000000
     6  H    2.040177   2.293859   1.089000   1.778330   1.778330
                    6
     6  H    0.000000
 Stoichiometry    CH4S
 Framework group  CS[SG(CH2S),X(H2)]
 Deg. of freedom     8
 Full point group                 CS      NOp   2
 Largest Abelian subgroup         CS      NOp   2
 Largest concise Abelian subgroup CS      NOp   2
                         Standard orientation:                         
 ---------------------------------------------------------------------
 Center     Atomic      Atomic             Coordinates (Angstroms)
 Number     Number       Type             X           Y           Z
 ---------------------------------------------------------------------
      1         16           0       -0.034449   -0.514321    0.000000
      2          1           0        0.861220   -0.830987    0.000000
      3          6           0       -0.034449    0.885679    0.000000
      4          1           0       -1.061168    1.248679    0.000000
      5          1           0        0.478911    1.248679    0.889165
      6          1           0        0.478911    1.248679   -0.889165
 ---------------------------------------------------------------------
 Rotational constants (GHZ):    127.7700751     20.4398902     19.8239860
 Leave Link  202 at Wed Sep  2 14:55:47 2015, MaxMem=    33554432 cpu:         0.0
 (Enter /group/hpc-share/gaussian/2009D/g09/l301.exe)
 Standard basis: Aug-CC-pVDZ (5D, 7F)
 Ernie: Thresh=  0.10000D-02 Tol=  0.10000D-05 Strict=F.
 Ernie:  12 primitive shells out of 106 were deleted.
 There are    62 symmetry adapted cartesian basis functions of A'  symmetry.
 There are    28 symmetry adapted cartesian basis functions of A"  symmetry.
 There are    58 symmetry adapted basis functions of A'  symmetry.
 There are    28 symmetry adapted basis functions of A"  symmetry.
    86 basis functions,   168 primitive gaussians,    90 cartesian basis functions
    13 alpha electrons       13 beta electrons
       nuclear repulsion energy        69.5765015842 Hartrees.
 IExCor=  402 DFT=T Ex+Corr=B3LYP ExCW=0 ScaHFX=  0.200000
 ScaDFX=  0.800000  0.720000  1.000000  0.810000 ScalE2=  1.000000  1.000000
 IRadAn=      0 IRanWt=     -1 IRanGd=            0 ICorTp=0 IEmpDi=  4
 NAtoms=    6 NActive=    6 NUniq=    5 SFac= 1.44D+00 NAtFMM=   60 NAOKFM=F Big=F
 Integral buffers will be    131072 words long.
 Raffenetti 2 integral format.
 Two-electron integral symmetry is turned on.
 Leave Link  301 at Wed Sep  2 14:55:47 2015, MaxMem=    33554432 cpu:         0.5
 (Enter /group/hpc-share/gaussian/2009D/g09/l302.exe)
 NPDir=0 NMtPBC=     1 NCelOv=     1 NCel=       1 NClECP=     1 NCelD=      1
         NCelK=      1 NCelE2=     1 NClLst=     1 CellRange=     0.0.
 One-electron integrals computed using PRISM.
 One-electron integral symmetry used in STVInt
 NBasis=    86 RedAO= T EigKep=  2.16D-04  NBF=    58    28
 NBsUse=    86 1.00D-06 EigRej= -1.00D+00 NBFU=    58    28
 Precomputing XC quadrature grid using
 IXCGrd= 4 IRadAn=           0 IRanWt=          -1 IRanGd=           0 AccXCQ= 0.00D+00.
 Generated NRdTot=       0 NPtTot=           0 NUsed=           0 NTot=          32
 NSgBfM=    90    90    90    90    90 MxSgAt=     6 MxSgA2=     6.
 Leave Link  302 at Wed Sep  2 14:55:47 2015, MaxMem=    33554432 cpu:         1.5
 (Enter /group/hpc-share/gaussian/2009D/g09/l303.exe)
 DipDrv:  MaxL=1.
 Leave Link  303 at Wed Sep  2 14:55:48 2015, MaxMem=    33554432 cpu:         0.3
 (Enter /group/hpc-share/gaussian/2009D/g09/l401.exe)
 ExpMin= 2.97D-02 ExpMax= 1.11D+05 ExpMxC= 1.07D+03 IAcc=3 IRadAn=         5 AccDes= 0.00D+00
 Harris functional with IExCor=  402 and IRadAn=       5 diagonalized for initial guess.
 HarFok:  IExCor=  402 AccDes= 0.00D+00 IRadAn=         5 IDoV= 1 UseB2=F ITyADJ=14
 ICtDFT=  3500011 ScaDFX=  1.000000  1.000000  1.000000  1.000000
 FoFCou: FMM=F IPFlag=           0 FMFlag=      100000 FMFlg1=           0
         NFxFlg=           0 DoJE=T BraDBF=F KetDBF=T FulRan=T
         wScrn=  0.000000 ICntrl=     500 IOpCl=  0 I1Cent=   200000004 NGrid=           0
         NMat0=    1 NMatS0=      1 NMatT0=    0 NMatD0=    1 NMtDS0=    0 NMtDT0=    0
 Petite list used in FoFCou.
 Harris En= -438.398751637205    
 JPrj=0 DoOrth=F DoCkMO=F.
 Initial guess orbital symmetries:
       Occupied  (A') (A') (A') (A') (A') (A") (A') (A') (A') (A")
                 (A') (A') (A")
       Virtual   (A') (A') (A") (A') (A') (A') (A") (A') (A') (A")
                 (A') (A") (A') (A') (A') (A') (A") (A') (A") (A')
                 (A') (A") (A') (A') (A") (A') (A") (A') (A") (A')
                 (A') (A') (A") (A') (A") (A') (A') (A") (A') (A')
                 (A") (A") (A') (A') (A') (A') (A") (A') (A") (A')
                 (A') (A") (A') (A') (A") (A') (A") (A') (A") (A')
                 (A") (A') (A") (A') (A') (A') (A') (A") (A') (A')
                 (A") (A') (A')
 The electronic state of the initial guess is 1-A'.
 Leave Link  401 at Wed Sep  2 14:55:49 2015, MaxMem=    33554432 cpu:         2.2
 (Enter /group/hpc-share/gaussian/2009D/g09/l502.exe)
 Closed shell SCF:
 Using DIIS extrapolation, IDIIS=  1040.
 Integral symmetry usage will be decided dynamically.
 Keep R1 ints in memory in symmetry-blocked form, NReq=10613770.
 IVT=       44378 IEndB=       44378 NGot=    33554432 MDV=    29940160
 LenX=    29940160 LenY=    29931619
 Requested convergence on RMS density matrix=1.00D-08 within 128 cycles.
 Requested convergence on MAX density matrix=1.00D-06.
 Requested convergence on             energy=1.00D-06.
 No special actions if energy rises.
 FoFCou: FMM=F IPFlag=           0 FMFlag=           0 FMFlg1=           0
         NFxFlg=           0 DoJE=F BraDBF=F KetDBF=F FulRan=T
         wScrn=  0.000000 ICntrl=     600 IOpCl=  0 I1Cent=           0 NGrid=           0
         NMat0=    1 NMatS0=   3741 NMatT0=    0 NMatD0=    1 NMtDS0=    0 NMtDT0=    0
 Petite list used in FoFCou.

 Cycle   1  Pass 1  IDiag  1:
 E= -438.305153425785    
 DIIS: error= 3.42D-02 at cycle   1 NSaved=   1.
 NSaved= 1 IEnMin= 1 EnMin= -438.305153425785     IErMin= 1 ErrMin= 3.42D-02
 ErrMax= 3.42D-02  0.00D+00 EMaxC= 1.00D-01 BMatC= 9.79D-02 BMatP= 9.79D-02
 IDIUse=3 WtCom= 6.58D-01 WtEn= 3.42D-01
 Coeff-Com:  0.100D+01
 Coeff-En:   0.100D+01
 Coeff:      0.100D+01
 Gap=     0.172 Goal=   None    Shift=    0.000
 GapD=    0.172 DampG=1.000 DampE=0.500 DampFc=0.5000 IDamp=-1.
 Damping current iteration by 5.00D-01
 RMSDP=1.09D-02 MaxDP=2.07D-01              OVMax= 1.84D-01

 Cycle   2  Pass 1  IDiag  1:
 E= -438.349085018656     Delta-E=       -0.043931592872 Rises=F Damp=T
 DIIS: error= 6.14D-03 at cycle   2 NSaved=   2.
 NSaved= 2 IEnMin= 2 EnMin= -438.349085018656     IErMin= 2 ErrMin= 6.14D-03
 ErrMax= 6.14D-03  0.00D+00 EMaxC= 1.00D-01 BMatC= 3.50D-03 BMatP= 9.79D-02
 IDIUse=3 WtCom= 9.39D-01 WtEn= 6.14D-02
 Coeff-Com:  0.737D-01 0.926D+00
 Coeff-En:   0.143D+00 0.857D+00
 Coeff:      0.779D-01 0.922D+00
 Gap=     0.205 Goal=   None    Shift=    0.000
 RMSDP=4.34D-03 MaxDP=9.19D-02 DE=-4.39D-02 OVMax= 1.04D-01

 Cycle   3  Pass 1  IDiag  1:
 E= -438.404895862155     Delta-E=       -0.055810843499 Rises=F Damp=F
 DIIS: error= 3.37D-03 at cycle   3 NSaved=   3.
 NSaved= 3 IEnMin= 3 EnMin= -438.404895862155     IErMin= 3 ErrMin= 3.37D-03
 ErrMax= 3.37D-03  0.00D+00 EMaxC= 1.00D-01 BMatC= 6.65D-04 BMatP= 3.50D-03
 IDIUse=3 WtCom= 9.66D-01 WtEn= 3.37D-02
 Coeff-Com: -0.590D-02 0.272D+00 0.734D+00
 Coeff-En:   0.000D+00 0.000D+00 0.100D+01
 Coeff:     -0.570D-02 0.263D+00 0.743D+00
 Gap=     0.207 Goal=   None    Shift=    0.000
 RMSDP=5.70D-04 MaxDP=1.02D-02 DE=-5.58D-02 OVMax= 1.42D-02

 Cycle   4  Pass 1  IDiag  1:
 E= -438.405630374088     Delta-E=       -0.000734511933 Rises=F Damp=F
 DIIS: error= 6.58D-04 at cycle   4 NSaved=   4.
 NSaved= 4 IEnMin= 4 EnMin= -438.405630374088     IErMin= 4 ErrMin= 6.58D-04
 ErrMax= 6.58D-04  0.00D+00 EMaxC= 1.00D-01 BMatC= 5.79D-05 BMatP= 6.65D-04
 IDIUse=3 WtCom= 9.93D-01 WtEn= 6.58D-03
 Coeff-Com: -0.514D-02 0.311D-01 0.260D+00 0.714D+00
 Coeff-En:   0.000D+00 0.000D+00 0.000D+00 0.100D+01
 Coeff:     -0.510D-02 0.309D-01 0.258D+00 0.716D+00
 Gap=     0.206 Goal=   None    Shift=    0.000
 RMSDP=1.35D-04 MaxDP=2.09D-03 DE=-7.35D-04 OVMax= 4.15D-03

 Cycle   5  Pass 1  IDiag  1:
 E= -438.405706907993     Delta-E=       -0.000076533905 Rises=F Damp=F
 DIIS: error= 1.46D-04 at cycle   5 NSaved=   5.
 NSaved= 5 IEnMin= 5 EnMin= -438.405706907993     IErMin= 5 ErrMin= 1.46D-04
 ErrMax= 1.46D-04  0.00D+00 EMaxC= 1.00D-01 BMatC= 2.20D-06 BMatP= 5.79D-05
 IDIUse=3 WtCom= 9.99D-01 WtEn= 1.46D-03
 Coeff-Com: -0.187D-02 0.426D-02 0.792D-01 0.279D+00 0.639D+00
 Coeff-En:   0.000D+00 0.000D+00 0.000D+00 0.000D+00 0.100D+01
 Coeff:     -0.187D-02 0.425D-02 0.791D-01 0.279D+00 0.640D+00
 Gap=     0.206 Goal=   None    Shift=    0.000
 RMSDP=2.32D-05 MaxDP=3.15D-04 DE=-7.65D-05 OVMax= 4.85D-04

 Cycle   6  Pass 1  IDiag  1:
 E= -438.405709395327     Delta-E=       -0.000002487334 Rises=F Damp=F
 DIIS: error= 1.26D-05 at cycle   6 NSaved=   6.
 NSaved= 6 IEnMin= 6 EnMin= -438.405709395327     IErMin= 6 ErrMin= 1.26D-05
 ErrMax= 1.26D-05  0.00D+00 EMaxC= 1.00D-01 BMatC= 1.51D-08 BMatP= 2.20D-06
 IDIUse=1 WtCom= 1.00D+00 WtEn= 0.00D+00
 Coeff-Com: -0.581D-04-0.722D-03 0.135D-02 0.167D-01 0.975D-01 0.885D+00
 Coeff:     -0.581D-04-0.722D-03 0.135D-02 0.167D-01 0.975D-01 0.885D+00
 Gap=     0.206 Goal=   None    Shift=    0.000
 RMSDP=3.36D-06 MaxDP=5.70D-05 DE=-2.49D-06 OVMax= 6.96D-05

 Cycle   7  Pass 1  IDiag  1:
 E= -438.405709413908     Delta-E=       -0.000000018581 Rises=F Damp=F
 DIIS: error= 1.41D-06 at cycle   7 NSaved=   7.
 NSaved= 7 IEnMin= 7 EnMin= -438.405709413908     IErMin= 7 ErrMin= 1.41D-06
 ErrMax= 1.41D-06  0.00D+00 EMaxC= 1.00D-01 BMatC= 1.49D-10 BMatP= 1.51D-08
 IDIUse=1 WtCom= 1.00D+00 WtEn= 0.00D+00
 Coeff-Com:  0.180D-04-0.106D-03-0.464D-03-0.499D-03 0.476D-02 0.120D+00
 Coeff-Com:  0.876D+00
 Coeff:      0.180D-04-0.106D-03-0.464D-03-0.499D-03 0.476D-02 0.120D+00
 Coeff:      0.876D+00
 Gap=     0.206 Goal=   None    Shift=    0.000
 RMSDP=4.36D-07 MaxDP=7.12D-06 DE=-1.86D-08 OVMax= 7.77D-06

 Cycle   8  Pass 1  IDiag  1:
 E= -438.405709414103     Delta-E=       -0.000000000195 Rises=F Damp=F
 DIIS: error= 2.64D-07 at cycle   8 NSaved=   8.
 NSaved= 8 IEnMin= 8 EnMin= -438.405709414103     IErMin= 8 ErrMin= 2.64D-07
 ErrMax= 2.64D-07  0.00D+00 EMaxC= 1.00D-01 BMatC= 1.36D-11 BMatP= 1.49D-10
 IDIUse=1 WtCom= 1.00D+00 WtEn= 0.00D+00
 Coeff-Com:  0.446D-05-0.107D-04-0.150D-03-0.601D-03-0.164D-02 0.880D-02
 Coeff-Com:  0.249D+00 0.745D+00
 Coeff:      0.446D-05-0.107D-04-0.150D-03-0.601D-03-0.164D-02 0.880D-02
 Coeff:      0.249D+00 0.745D+00
 Gap=     0.206 Goal=   None    Shift=    0.000
 RMSDP=1.06D-07 MaxDP=2.74D-06 DE=-1.95D-10 OVMax= 2.05D-06

 Cycle   9  Pass 1  IDiag  1:
 E= -438.405709414125     Delta-E=       -0.000000000022 Rises=F Damp=F
 DIIS: error= 9.71D-08 at cycle   9 NSaved=   9.
 NSaved= 9 IEnMin= 9 EnMin= -438.405709414125     IErMin= 9 ErrMin= 9.71D-08
 ErrMax= 9.71D-08  0.00D+00 EMaxC= 1.00D-01 BMatC= 1.34D-12 BMatP= 1.36D-11
 IDIUse=1 WtCom= 1.00D+00 WtEn= 0.00D+00
 Coeff-Com:  0.114D-06 0.477D-05-0.303D-04-0.210D-03-0.929D-03-0.409D-02
 Coeff-Com:  0.320D-01 0.264D+00 0.710D+00
 Coeff:      0.114D-06 0.477D-05-0.303D-04-0.210D-03-0.929D-03-0.409D-02
 Coeff:      0.320D-01 0.264D+00 0.710D+00
 Gap=     0.206 Goal=   None    Shift=    0.000
 RMSDP=2.70D-08 MaxDP=4.83D-07 DE=-2.22D-11 OVMax= 6.14D-07

 Cycle  10  Pass 1  IDiag  1:
 E= -438.405709414125     Delta-E=        0.000000000001 Rises=F Damp=F
 DIIS: error= 1.33D-08 at cycle  10 NSaved=  10.
 NSaved=10 IEnMin= 9 EnMin= -438.405709414125     IErMin=10 ErrMin= 1.33D-08
 ErrMax= 1.33D-08  0.00D+00 EMaxC= 1.00D-01 BMatC= 2.16D-14 BMatP= 1.34D-12
 IDIUse=1 WtCom= 1.00D+00 WtEn= 0.00D+00
 Coeff-Com: -0.329D-06 0.140D-05-0.854D-06-0.206D-04-0.130D-03-0.108D-02
 Coeff-Com: -0.311D-02 0.228D-01 0.132D+00 0.850D+00
 Coeff:     -0.329D-06 0.140D-05-0.854D-06-0.206D-04-0.130D-03-0.108D-02
 Coeff:     -0.311D-02 0.228D-01 0.132D+00 0.850D+00
 Gap=     0.206 Goal=   None    Shift=    0.000
 RMSDP=4.97D-09 MaxDP=6.52D-08 DE= 7.39D-13 OVMax= 1.14D-07

 SCF Done:  E(RB3LYP) =  -438.405709414     A.U. after   10 cycles
            NFock= 10  Conv=0.50D-08     -V/T= 1.9973
 KE= 4.395776295732D+02 PE=-1.180276700893D+03 EE= 2.327168603215D+02
 Leave Link  502 at Wed Sep  2 14:55:50 2015, MaxMem=    33554432 cpu:         6.7
 (Enter /group/hpc-share/gaussian/2009D/g09/l601.exe)
 Copying SCF densities to generalized density rwf, IOpCl= 0 IROHF=0.

 **********************************************************************

            Population analysis using the SCF density.

 **********************************************************************

 Orbital symmetries:
       Occupied  (A') (A') (A') (A') (A') (A") (A') (A') (A') (A")
                 (A') (A') (A")
       Virtual   (A') (A') (A") (A') (A') (A') (A') (A") (A") (A')
                 (A') (A") (A') (A') (A') (A') (A") (A') (A") (A')
                 (A') (A") (A') (A') (A") (A') (A") (A') (A") (A')
                 (A') (A') (A") (A") (A') (A') (A') (A") (A') (A')
                 (A") (A") (A') (A') (A') (A') (A") (A') (A") (A')
                 (A') (A") (A') (A') (A") (A') (A") (A') (A") (A')
                 (A") (A') (A") (A') (A') (A') (A') (A") (A') (A')
                 (A") (A') (A')
 The electronic state is 1-A'.
 Alpha  occ. eigenvalues --  -88.82410 -10.19559  -7.92306  -5.88760  -5.87883
 Alpha  occ. eigenvalues --   -5.87235  -0.91990  -0.68330  -0.51480  -0.48282
 Alpha  occ. eigenvalues --   -0.45628  -0.30266  -0.21805
 Alpha virt. eigenvalues --   -0.01208   0.01195   0.01663   0.02191   0.05740
 Alpha virt. eigenvalues --    0.06631   0.08150   0.08841   0.09124   0.10438
 Alpha virt. eigenvalues --    0.10656   0.12715   0.13524   0.17270   0.18218
 Alpha virt. eigenvalues --    0.21341   0.24268   0.25190   0.27813   0.28715
 Alpha virt. eigenvalues --    0.31388   0.33772   0.33955   0.36066   0.37869
 Alpha virt. eigenvalues --    0.42202   0.42790   0.42949   0.45248   0.46365
 Alpha virt. eigenvalues --    0.49128   0.52255   0.52487   0.55850   0.55899
 Alpha virt. eigenvalues --    0.56200   0.60738   0.64946   0.68044   0.75112
 Alpha virt. eigenvalues --    0.78419   0.80477   0.84133   0.87964   0.89684
 Alpha virt. eigenvalues --    0.93099   0.94705   0.95817   0.99680   1.03968
 Alpha virt. eigenvalues --    1.25614   1.25959   1.34634   1.48762   1.58248
 Alpha virt. eigenvalues --    1.58377   1.60312   1.62742   1.76065   1.82057
 Alpha virt. eigenvalues --    1.85739   1.89556   1.94125   1.96772   1.99961
 Alpha virt. eigenvalues --    2.13733   2.14102   2.30344   2.39588   2.49682
 Alpha virt. eigenvalues --    2.59230   2.59529   3.26363
          Condensed to atoms (all electrons):
               1          2          3          4          5          6
     1  S   16.491664  -0.845387  -0.044467  -0.454269  -0.042995  -0.042995
     2  H   -0.845387   2.849994   0.238923   0.014204  -0.070656  -0.070656
     3  C   -0.044467   0.238923   4.014633   0.508716   0.202676   0.202676
     4  H   -0.454269   0.014204   0.508716   1.489131  -0.175184  -0.175184
     5  H   -0.042995  -0.070656   0.202676  -0.175184   1.635949  -0.304062
     6  H   -0.042995  -0.070656   0.202676  -0.175184  -0.304062   1.635949
 Mulliken charges:
               1
     1  S    0.938449
     2  H   -1.116422
     3  C    0.876842
     4  H   -0.207414
     5  H   -0.245728
     6  H   -0.245728
 Sum of Mulliken charges =   0.00000
 Mulliken charges with hydrogens summed into heavy atoms:
               1
     1  S   -0.177973
     3  C    0.177973
 Electronic spatial extent (au):  <R**2>=            111.5817
 Charge=              0.0000 electrons
 Dipole moment (field-independent basis, Debye):
    X=              0.8656    Y=              1.4009    Z=              0.0000  Tot=              1.6467
 Quadrupole moment (field-independent basis, Debye-Ang):
   XX=            -19.1823   YY=            -21.4803   ZZ=            -21.8036
   XY=             -1.8067   XZ=              0.0000   YZ=              0.0000
 Traceless Quadrupole moment (field-independent basis, Debye-Ang):
   XX=              1.6398   YY=             -0.6582   ZZ=             -0.9815
   XY=             -1.8067   XZ=              0.0000   YZ=              0.0000
 Octapole moment (field-independent basis, Debye-Ang**2):
  XXX=              0.9590  YYY=             -1.8702  ZZZ=              0.0000  XYY=              1.2748
  XXY=              0.9067  XXZ=              0.0000  XZZ=              1.3225  YZZ=              2.1349
  YYZ=              0.0000  XYZ=              0.0000
 Hexadecapole moment (field-independent basis, Debye-Ang**3):
 XXXX=            -31.6264 YYYY=           -100.1877 ZZZZ=            -37.2419 XXXY=             -2.2964
 XXXZ=              0.0000 YYYX=             -3.0549 YYYZ=              0.0000 ZZZX=              0.0000
 ZZZY=              0.0000 XXYY=            -21.1446 XXZZ=            -11.7027 YYZZ=            -24.2518
 XXYZ=              0.0000 YYXZ=              0.0000 ZZXY=              0.1682
 N-N= 6.957650158416D+01 E-N=-1.180276700943D+03  KE= 4.395776295732D+02
 Symmetry A'   KE= 3.988857072620D+02
 Symmetry A"   KE= 4.069192231121D+01
 No NMR shielding tensors so no spin-rotation constants.
 Leave Link  601 at Wed Sep  2 14:55:51 2015, MaxMem=    33554432 cpu:         1.7
 (Enter /group/hpc-share/gaussian/2009D/g09/l701.exe)
 Compute integral first derivatives.
 ... and contract with generalized density number  0.
 Leave Link  701 at Wed Sep  2 14:55:51 2015, MaxMem=    33554432 cpu:         1.6
 (Enter /group/hpc-share/gaussian/2009D/g09/l702.exe)
 L702 exits ... SP integral derivatives will be done elsewhere.
 Leave Link  702 at Wed Sep  2 14:55:51 2015, MaxMem=    33554432 cpu:         0.2
 (Enter /group/hpc-share/gaussian/2009D/g09/l703.exe)
 Compute integral first derivatives, UseDBF=F ICtDFT=           0.
 Integral derivatives from FoFJK, PRISM(SPDF).
 Calling FoFJK, ICntrl=      2127 FMM=F ISym2X=1 I1Cent= 0 IOpClX= 0 NMat=1 NMatS=1 NMatT=0.
 FoFJK:  IHMeth= 1 ICntrl=    2127 DoSepK=F KAlg= 0 I1Cent=   0 FoldK=F
 IRaf=         0 NMat=   1 IRICut=       1 DoRegI=T DoRafI=F ISym2E= 1.
 FoFCou: FMM=F IPFlag=           0 FMFlag=      100000 FMFlg1=         800
         NFxFlg=           0 DoJE=F BraDBF=F KetDBF=F FulRan=T
         wScrn=  0.000000 ICntrl=    2127 IOpCl=  0 I1Cent=           0 NGrid=           0
         NMat0=    1 NMatS0=      1 NMatT0=    0 NMatD0=    1 NMtDS0=    0 NMtDT0=    0
 Petite list used in FoFCou.
 Leave Link  703 at Wed Sep  2 14:55:52 2015, MaxMem=    33554432 cpu:         3.8
 (Enter /group/hpc-share/gaussian/2009D/g09/l716.exe)
 Dipole        = 3.40534833D-01 5.51154038D-01-4.44089210D-16
 ***** Axes restored to original set *****
 -------------------------------------------------------------------
 Center     Atomic                   Forces (Hartrees/Bohr)
 Number     Number              X              Y              Z
 -------------------------------------------------------------------
      1       16          -0.500045991    0.000000000   -0.487328947
      2        1           0.010275577    0.000000000    0.640468241
      3        6           0.422891182    0.000000000   -0.129236138
      4        1           0.011886860    0.000000000   -0.005090980
      5        1           0.027496186    0.006199157   -0.009406088
      6        1           0.027496186   -0.006199157   -0.009406088
 -------------------------------------------------------------------
 Cartesian Forces:  Max     0.640468241 RMS     0.246679356
 Leave Link  716 at Wed Sep  2 14:55:53 2015, MaxMem=    33554432 cpu:         0.2
 (Enter /group/hpc-share/gaussian/2009D/g09/l103.exe)

 GradGradGradGradGradGradGradGradGradGradGradGradGradGradGradGradGradGrad
 Berny optimization.
 FormGI is forming the generalized inverse of G from B-inverse, IUseBI=4.
 Internal  Forces:  Max     0.640466607 RMS     0.212503836
 Search for a local minimum.
 Step number   1 out of a maximum of   25
 All quantities printed in internal units (Hartrees-Bohrs-Radians)
 RMS Force = .21250D+00 SwitMx=.10000D-02 MixMth= 1
 Mixed Optimization -- RFO/linear search
 Second derivative matrix not updated -- first step.
 The second derivative matrix:
                          R1        R2        R3        R4        R5
           R1           1.18519
           R2           0.00000   1.22235
           R3           0.00000   0.00000   0.34928
           R4           0.00000   0.00000   0.00000   0.34928
           R5           0.00000   0.00000   0.00000   0.00000   0.34928
           A1           0.00000   0.00000   0.00000   0.00000   0.00000
           A2           0.00000   0.00000   0.00000   0.00000   0.00000
           A3           0.00000   0.00000   0.00000   0.00000   0.00000
           A4           0.00000   0.00000   0.00000   0.00000   0.00000
           A5           0.00000   0.00000   0.00000   0.00000   0.00000
           A6           0.00000   0.00000   0.00000   0.00000   0.00000
           A7           0.00000   0.00000   0.00000   0.00000   0.00000
           D1           0.00000   0.00000   0.00000   0.00000   0.00000
           D2           0.00000   0.00000   0.00000   0.00000   0.00000
           D3           0.00000   0.00000   0.00000   0.00000   0.00000
                          A1        A2        A3        A4        A5
           A1           0.16000
           A2           0.00000   0.16000
           A3           0.00000   0.00000   0.16000
           A4           0.00000   0.00000   0.00000   0.16000
           A5           0.00000   0.00000   0.00000   0.00000   0.16000
           A6           0.00000   0.00000   0.00000   0.00000   0.00000
           A7           0.00000   0.00000   0.00000   0.00000   0.00000
           D1           0.00000   0.00000   0.00000   0.00000   0.00000
           D2           0.00000   0.00000   0.00000   0.00000   0.00000
           D3           0.00000   0.00000   0.00000   0.00000   0.00000
                          A6        A7        D1        D2        D3
           A6           0.16000
           A7           0.00000   0.16000
           D1           0.00000   0.00000   0.05662
           D2           0.00000   0.00000   0.00000   0.05662
           D3           0.00000   0.00000   0.00000   0.00000   0.05662
 ITU=  0
     Eigenvalues ---    0.05662   0.12024   0.12024   0.16000   0.16000
     Eigenvalues ---    0.16000   0.16000   0.34928   0.34928   0.34928
     Eigenvalues ---    1.18519   1.22235
 RFO step:  Lambda=-4.22149991D-01 EMin= 5.66153456D-02
 Linear search not attempted -- first point.
 Maximum step size (   0.300) exceeded in Quadratic search.
    -- Step size scaled by   0.580
 Iteration  1 RMS(Cart)=  0.08397593 RMS(Int)=  0.00806092
 Iteration  2 RMS(Cart)=  0.00629221 RMS(Int)=  0.00021624
 Iteration  3 RMS(Cart)=  0.00000912 RMS(Int)=  0.00021611
 Iteration  4 RMS(Cart)=  0.00000000 RMS(Int)=  0.00021611
 ITry= 1 IFail=0 DXMaxC= 2.08D-01 DCOld= 1.00D+10 DXMaxT= 3.00D-01 DXLimC= 3.00D+00 Rises=F
 ClnCor:  largest displacement from symmetrization is 5.35D-13 for atom     6.
 Variable       Old X    -DE/DX   Delta X   Delta X   Delta X     New X
                                 (Linear)    (Quad)   (Total)
    R1        1.79524   0.64047   0.00000   0.23105   0.23105   2.02629
    R2        2.64562   0.51281   0.00000   0.18082   0.18082   2.82644
    R3        2.05791   0.00509   0.00000   0.00383   0.00383   2.06174
    R4        2.05791   0.01489   0.00000   0.01119   0.01119   2.06910
    R5        2.05791   0.01489   0.00000   0.01119   0.01119   2.06910
    A1        1.91063  -0.01844   0.00000  -0.01837  -0.01837   1.89226
    A2        1.91063   0.00291   0.00000   0.00263   0.00251   1.91314
    A3        1.91063   0.03096   0.00000   0.03097   0.03064   1.94127
    A4        1.91063   0.03096   0.00000   0.03097   0.03064   1.94127
    A5        1.91063  -0.02155   0.00000  -0.02174  -0.02185   1.88878
    A6        1.91063  -0.02155   0.00000  -0.02174  -0.02185   1.88878
    A7        1.91063  -0.02172   0.00000  -0.02110  -0.02161   1.88903
    D1        3.14159   0.00000   0.00000   0.00000   0.00000   3.14159
    D2       -1.04720  -0.00565   0.00000  -0.00604  -0.00635  -1.05355
    D3        1.04720   0.00565   0.00000   0.00604   0.00635   1.05355
         Item               Value     Threshold  Converged?
 Maximum Force            0.640467     0.000450     NO 
 RMS     Force            0.212504     0.000300     NO 
 Maximum Displacement     0.208193     0.001800     NO 
 RMS     Displacement     0.088368     0.001200     NO 
 Predicted change in Energy=-1.928277D-01
 Lowest energy point so far.  Saving SCF results.
 GradGradGradGradGradGradGradGradGradGradGradGradGradGradGradGradGradGrad

 Leave Link  103 at Wed Sep  2 14:55:53 2015, MaxMem=    33554432 cpu:         0.1
 (Enter /group/hpc-share/gaussian/2009D/g09/l202.exe)
                          Input orientation:                          
 ---------------------------------------------------------------------
 Center     Atomic      Atomic             Coordinates (Angstroms)
 Number     Number       Type             X           Y           Z
 ---------------------------------------------------------------------
      1         16           0       -0.077132    0.000000   -0.012097
      2          1           0       -0.076268    0.000000    1.060171
      3          6           0        1.341553    0.000000   -0.485813
      4          1           0        1.363456    0.000000   -1.576618
      5          1           0        1.877420    0.887119   -0.132655
      6          1           0        1.877420   -0.887119   -0.132655
 ---------------------------------------------------------------------
                    Distance matrix (angstroms):
                    1          2          3          4          5
     1  S    0.000000
     2  H    1.072268   0.000000
     3  C    1.495685   2.097685   0.000000
     4  H    2.126739   3.004241   1.091025   0.000000
     5  H    2.149834   2.454936   1.094922   1.770923   0.000000
     6  H    2.149834   2.454936   1.094922   1.770923   1.774238
                    6
     6  H    0.000000
 Stoichiometry    CH4S
 Framework group  CS[SG(CH2S),X(H2)]
 Deg. of freedom     8
 Full point group                 CS      NOp   2
 RotChk:  IX=0 Diff= 2.48D-02
 Largest Abelian subgroup         CS      NOp   2
 Largest concise Abelian subgroup CS      NOp   2
                         Standard orientation:                         
 ---------------------------------------------------------------------
 Center     Atomic      Atomic             Coordinates (Angstroms)
 Number     Number       Type             X           Y           Z
 ---------------------------------------------------------------------
      1         16           0       -0.038424   -0.549288    0.000000
      2          1           0        0.978916   -0.888079    0.000000
      3          6           0       -0.038424    0.946397    0.000000
      4          1           0       -1.066135    1.312654    0.000000
      5          1           0        0.466274    1.342824    0.887119
      6          1           0        0.466274    1.342824   -0.887119
 ---------------------------------------------------------------------
 Rotational constants (GHZ):    121.5880005     18.0621426     17.4485545
 Leave Link  202 at Wed Sep  2 14:55:53 2015, MaxMem=    33554432 cpu:         0.0
 (Enter /group/hpc-share/gaussian/2009D/g09/l301.exe)
 Standard basis: Aug-CC-pVDZ (5D, 7F)
 Ernie: Thresh=  0.10000D-02 Tol=  0.10000D-05 Strict=F.
 Ernie:  12 primitive shells out of 106 were deleted.
 There are    62 symmetry adapted cartesian basis functions of A'  symmetry.
 There are    28 symmetry adapted cartesian basis functions of A"  symmetry.
 There are    58 symmetry adapted basis functions of A'  symmetry.
 There are    28 symmetry adapted basis functions of A"  symmetry.
    86 basis functions,   168 primitive gaussians,    90 cartesian basis functions
    13 alpha electrons       13 beta electrons
       nuclear repulsion energy        65.4456245770 Hartrees.
 IExCor=  402 DFT=T Ex+Corr=B3LYP ExCW=0 ScaHFX=  0.200000
 ScaDFX=  0.800000  0.720000  1.000000  0.810000 ScalE2=  1.000000  1.000000
 IRadAn=      0 IRanWt=     -1 IRanGd=            0 ICorTp=0 IEmpDi=  4
 NAtoms=    6 NActive=    6 NUniq=    5 SFac= 1.44D+00 NAtFMM=   60 NAOKFM=F Big=F
 Integral buffers will be    131072 words long.
 Raffenetti 2 integral format.
 Two-electron integral symmetry is turned on.
 Leave Link  301 at Wed Sep  2 14:55:53 2015, MaxMem=    33554432 cpu:         0.4
 (Enter /group/hpc-share/gaussian/2009D/g09/l302.exe)
 NPDir=0 NMtPBC=     1 NCelOv=     1 NCel=       1 NClECP=     1 NCelD=      1
         NCelK=      1 NCelE2=     1 NClLst=     1 CellRange=     0.0.
 One-electron integrals computed using PRISM.
 One-electron integral symmetry used in STVInt
 NBasis=    86 RedAO= T EigKep=  3.03D-04  NBF=    58    28
 NBsUse=    86 1.00D-06 EigRej= -1.00D+00 NBFU=    58    28
 Precomputing XC quadrature grid using
 IXCGrd= 4 IRadAn=           0 IRanWt=          -1 IRanGd=           0 AccXCQ= 0.00D+00.
 Generated NRdTot=       0 NPtTot=           0 NUsed=           0 NTot=          32
 NSgBfM=    90    90    90    90    90 MxSgAt=     6 MxSgA2=     6.
 Leave Link  302 at Wed Sep  2 14:55:53 2015, MaxMem=    33554432 cpu:         1.7
 (Enter /group/hpc-share/gaussian/2009D/g09/l303.exe)
 DipDrv:  MaxL=1.
 Leave Link  303 at Wed Sep  2 14:55:53 2015, MaxMem=    33554432 cpu:         0.2
 (Enter /group/hpc-share/gaussian/2009D/g09/l401.exe)
 Initial guess from the checkpoint file:  "methanethiol.chk"
 B after Tr=     0.000000    0.000000    0.000000
         Rot=    0.999996    0.000000    0.000000   -0.002928 Ang=  -0.34 deg.
 Guess basis will be translated and rotated to current coordinates.
 JPrj=2 DoOrth=T DoCkMO=T.
 Initial guess orbital symmetries:
       Occupied  (A') (A') (A') (A') (A') (A") (A') (A') (A') (A")
                 (A') (A') (A")
       Virtual   (A') (A') (A') (A') (A') (A') (A') (A') (A') (A')
                 (A') (A') (A') (A') (A') (A') (A') (A') (A') (A')
                 (A') (A') (A') (A') (A') (A') (A') (A') (A') (A')
                 (A') (A') (A') (A') (A') (A') (A') (A') (A') (A')
                 (A') (A') (A') (A') (A') (A') (A') (A') (A") (A")
                 (A") (A") (A") (A") (A") (A") (A") (A") (A") (A")
                 (A") (A") (A") (A") (A") (A") (A") (A") (A") (A")
                 (A") (A") (A")
 The electronic state of the initial guess is 1-A'.
 Generating alternative initial guess.
 ExpMin= 2.97D-02 ExpMax= 1.11D+05 ExpMxC= 1.07D+03 IAcc=3 IRadAn=         5 AccDes= 0.00D+00
 Harris functional with IExCor=  402 and IRadAn=       5 diagonalized for initial guess.
 HarFok:  IExCor=  402 AccDes= 0.00D+00 IRadAn=         5 IDoV= 1 UseB2=F ITyADJ=14
 ICtDFT=  3500011 ScaDFX=  1.000000  1.000000  1.000000  1.000000
 FoFCou: FMM=F IPFlag=           0 FMFlag=      100000 FMFlg1=           0
         NFxFlg=           0 DoJE=T BraDBF=F KetDBF=T FulRan=T
         wScrn=  0.000000 ICntrl=     500 IOpCl=  0 I1Cent=   200000004 NGrid=           0
         NMat0=    1 NMatS0=      1 NMatT0=    0 NMatD0=    1 NMtDS0=    0 NMtDT0=    0
 Petite list used in FoFCou.
 Harris En= -438.560643503671    
 Leave Link  401 at Wed Sep  2 14:55:54 2015, MaxMem=    33554432 cpu:         2.2
 (Enter /group/hpc-share/gaussian/2009D/g09/l502.exe)
 Closed shell SCF:
 Using DIIS extrapolation, IDIIS=  1040.
 Integral symmetry usage will be decided dynamically.
 Keep R1 ints in memory in symmetry-blocked form, NReq=10613770.
 IVT=       44378 IEndB=       44378 NGot=    33554432 MDV=    29940160
 LenX=    29940160 LenY=    29931619
 Requested convergence on RMS density matrix=1.00D-08 within 128 cycles.
 Requested convergence on MAX density matrix=1.00D-06.
 Requested convergence on             energy=1.00D-06.
 No special actions if energy rises.
 FoFCou: FMM=F IPFlag=           0 FMFlag=           0 FMFlg1=           0
         NFxFlg=           0 DoJE=F BraDBF=F KetDBF=F FulRan=T
         wScrn=  0.000000 ICntrl=     600 IOpCl=  0 I1Cent=           0 NGrid=           0
         NMat0=    1 NMatS0=   3741 NMatT0=    0 NMatD0=    1 NMtDS0=    0 NMtDT0=    0
 Petite list used in FoFCou.

 Cycle   1  Pass 1  IDiag  1:
 E= -438.576096089095    
 DIIS: error= 1.14D-02 at cycle   1 NSaved=   1.
 NSaved= 1 IEnMin= 1 EnMin= -438.576096089095     IErMin= 1 ErrMin= 1.14D-02
 ErrMax= 1.14D-02  0.00D+00 EMaxC= 1.00D-01 BMatC= 1.08D-02 BMatP= 1.08D-02
 IDIUse=3 WtCom= 8.86D-01 WtEn= 1.14D-01
 Coeff-Com:  0.100D+01
 Coeff-En:   0.100D+01
 Coeff:      0.100D+01
 Recover alternate guess density for next cycle.
 RMSDP=7.55D-03 MaxDP=8.40D-02              OVMax= 0.00D+00

 Cycle   2  Pass 1  IDiag  1:
 E= -438.507529487133     Delta-E=        0.068566601962 Rises=F Damp=F
 Switch densities from cycles 1 and 2 for lowest energy.
 DIIS: error= 2.81D-02 at cycle   2 NSaved=   2.
 NSaved= 2 IEnMin= 1 EnMin= -438.576096089095     IErMin= 1 ErrMin= 1.14D-02
 ErrMax= 2.81D-02  0.00D+00 EMaxC= 1.00D+00 BMatC= 7.75D-02 BMatP= 1.08D-02
 IDIUse=1 WtCom= 1.00D+00 WtEn= 0.00D+00
 Coeff-Com:  0.936D+00 0.635D-01
 Coeff:      0.936D+00 0.635D-01
 Gap=     0.383 Goal=   None    Shift=    0.000
 RMSDP=6.51D-03 MaxDP=1.25D-01 DE= 6.86D-02 OVMax= 3.93D-02

 Cycle   3  Pass 1  IDiag  1:
 E= -438.585524599144     Delta-E=       -0.077995112011 Rises=F Damp=F
 DIIS: error= 3.54D-03 at cycle   3 NSaved=   3.
 NSaved= 3 IEnMin= 3 EnMin= -438.585524599144     IErMin= 3 ErrMin= 3.54D-03
 ErrMax= 3.54D-03  0.00D+00 EMaxC= 1.00D+00 BMatC= 1.68D-03 BMatP= 1.08D-02
 IDIUse=1 WtCom= 1.00D+00 WtEn= 0.00D+00
 Coeff-Com:  0.849D-01 0.962D-01 0.819D+00
 Coeff:      0.849D-01 0.962D-01 0.819D+00
 Gap=     0.210 Goal=   None    Shift=    0.000
 RMSDP=7.04D-04 MaxDP=1.27D-02 DE=-7.80D-02 OVMax= 1.36D-02

 Cycle   4  Pass 1  IDiag  1:
 E= -438.586973956952     Delta-E=       -0.001449357808 Rises=F Damp=F
 DIIS: error= 1.15D-03 at cycle   4 NSaved=   4.
 NSaved= 4 IEnMin= 4 EnMin= -438.586973956952     IErMin= 4 ErrMin= 1.15D-03
 ErrMax= 1.15D-03  0.00D+00 EMaxC= 1.00D+00 BMatC= 1.62D-04 BMatP= 1.68D-03
 IDIUse=1 WtCom= 1.00D+00 WtEn= 0.00D+00
 Coeff-Com: -0.121D-02 0.377D-01 0.324D+00 0.639D+00
 Coeff:     -0.121D-02 0.377D-01 0.324D+00 0.639D+00
 Gap=     0.214 Goal=   None    Shift=    0.000
 RMSDP=2.30D-04 MaxDP=5.03D-03 DE=-1.45D-03 OVMax= 5.63D-03

 Cycle   5  Pass 1  IDiag  1:
 E= -438.587161766139     Delta-E=       -0.000187809187 Rises=F Damp=F
 DIIS: error= 1.74D-04 at cycle   5 NSaved=   5.
 NSaved= 5 IEnMin= 5 EnMin= -438.587161766139     IErMin= 5 ErrMin= 1.74D-04
 ErrMax= 1.74D-04  0.00D+00 EMaxC= 1.00D+00 BMatC= 3.40D-06 BMatP= 1.62D-04
 IDIUse=1 WtCom= 1.00D+00 WtEn= 0.00D+00
 Coeff-Com: -0.282D-02 0.557D-02 0.569D-01 0.180D+00 0.761D+00
 Coeff:     -0.282D-02 0.557D-02 0.569D-01 0.180D+00 0.761D+00
 Gap=     0.214 Goal=   None    Shift=    0.000
 RMSDP=3.03D-05 MaxDP=4.98D-04 DE=-1.88D-04 OVMax= 6.80D-04

 Cycle   6  Pass 1  IDiag  1:
 E= -438.587165760669     Delta-E=       -0.000003994530 Rises=F Damp=F
 DIIS: error= 3.46D-05 at cycle   6 NSaved=   6.
 NSaved= 6 IEnMin= 6 EnMin= -438.587165760669     IErMin= 6 ErrMin= 3.46D-05
 ErrMax= 3.46D-05  0.00D+00 EMaxC= 1.00D+00 BMatC= 7.98D-08 BMatP= 3.40D-06
 IDIUse=1 WtCom= 1.00D+00 WtEn= 0.00D+00
 Coeff-Com: -0.746D-03 0.498D-03 0.577D-02 0.286D-01 0.203D+00 0.763D+00
 Coeff:     -0.746D-03 0.498D-03 0.577D-02 0.286D-01 0.203D+00 0.763D+00
 Gap=     0.214 Goal=   None    Shift=    0.000
 RMSDP=5.50D-06 MaxDP=5.65D-05 DE=-3.99D-06 OVMax= 1.06D-04

 Cycle   7  Pass 1  IDiag  1:
 E= -438.587165846574     Delta-E=       -0.000000085905 Rises=F Damp=F
 DIIS: error= 6.78D-06 at cycle   7 NSaved=   7.
 NSaved= 7 IEnMin= 7 EnMin= -438.587165846574     IErMin= 7 ErrMin= 6.78D-06
 ErrMax= 6.78D-06  0.00D+00 EMaxC= 1.00D+00 BMatC= 3.13D-09 BMatP= 7.98D-08
 IDIUse=1 WtCom= 1.00D+00 WtEn= 0.00D+00
 Coeff-Com: -0.750D-04-0.232D-04 0.413D-03 0.382D-02 0.388D-01 0.223D+00
 Coeff-Com:  0.734D+00
 Coeff:     -0.750D-04-0.232D-04 0.413D-03 0.382D-02 0.388D-01 0.223D+00
 Coeff:      0.734D+00
 Gap=     0.214 Goal=   None    Shift=    0.000
 RMSDP=1.22D-06 MaxDP=3.26D-05 DE=-8.59D-08 OVMax= 3.88D-05

 Cycle   8  Pass 1  IDiag  1:
 E= -438.587165851015     Delta-E=       -0.000000004442 Rises=F Damp=F
 DIIS: error= 1.40D-06 at cycle   8 NSaved=   8.
 NSaved= 8 IEnMin= 8 EnMin= -438.587165851015     IErMin= 8 ErrMin= 1.40D-06
 ErrMax= 1.40D-06  0.00D+00 EMaxC= 1.00D+00 BMatC= 1.99D-10 BMatP= 3.13D-09
 IDIUse=1 WtCom= 1.00D+00 WtEn= 0.00D+00
 Coeff-Com:  0.349D-05-0.269D-04-0.250D-03-0.347D-03 0.533D-03 0.212D-01
 Coeff-Com:  0.217D+00 0.762D+00
 Coeff:      0.349D-05-0.269D-04-0.250D-03-0.347D-03 0.533D-03 0.212D-01
 Coeff:      0.217D+00 0.762D+00
 Gap=     0.214 Goal=   None    Shift=    0.000
 RMSDP=2.77D-07 MaxDP=3.70D-06 DE=-4.44D-09 OVMax= 8.37D-06

 Cycle   9  Pass 1  IDiag  1:
 E= -438.587165851290     Delta-E=       -0.000000000275 Rises=F Damp=F
 DIIS: error= 2.98D-07 at cycle   9 NSaved=   9.
 NSaved= 9 IEnMin= 9 EnMin= -438.587165851290     IErMin= 9 ErrMin= 2.98D-07
 ErrMax= 2.98D-07  0.00D+00 EMaxC= 1.00D+00 BMatC= 1.29D-11 BMatP= 1.99D-10
 IDIUse=1 WtCom= 1.00D+00 WtEn= 0.00D+00
 Coeff-Com:  0.648D-05-0.110D-04-0.136D-03-0.387D-03-0.206D-02-0.291D-02
 Coeff-Com:  0.559D-01 0.293D+00 0.657D+00
 Coeff:      0.648D-05-0.110D-04-0.136D-03-0.387D-03-0.206D-02-0.291D-02
 Coeff:      0.559D-01 0.293D+00 0.657D+00
 Gap=     0.214 Goal=   None    Shift=    0.000
 RMSDP=7.54D-08 MaxDP=8.29D-07 DE=-2.75D-10 OVMax= 1.66D-06

 Cycle  10  Pass 1  IDiag  1:
 E= -438.587165851306     Delta-E=       -0.000000000016 Rises=F Damp=F
 DIIS: error= 4.14D-08 at cycle  10 NSaved=  10.
 NSaved=10 IEnMin=10 EnMin= -438.587165851306     IErMin=10 ErrMin= 4.14D-08
 ErrMax= 4.14D-08  0.00D+00 EMaxC= 1.00D+00 BMatC= 1.33D-13 BMatP= 1.29D-11
 IDIUse=1 WtCom= 1.00D+00 WtEn= 0.00D+00
 Coeff-Com:  0.664D-06-0.197D-06-0.222D-05-0.346D-04-0.288D-03-0.122D-02
 Coeff-Com: -0.160D-02 0.249D-02 0.785D-01 0.922D+00
 Coeff:      0.664D-06-0.197D-06-0.222D-05-0.346D-04-0.288D-03-0.122D-02
 Coeff:     -0.160D-02 0.249D-02 0.785D-01 0.922D+00
 Gap=     0.214 Goal=   None    Shift=    0.000
 RMSDP=1.51D-08 MaxDP=2.09D-07 DE=-1.61D-11 OVMax= 3.41D-07

 Cycle  11  Pass 1  IDiag  1:
 E= -438.587165851304     Delta-E=        0.000000000003 Rises=F Damp=F
 DIIS: error= 7.37D-09 at cycle  11 NSaved=  11.
 NSaved=11 IEnMin=10 EnMin= -438.587165851306     IErMin=11 ErrMin= 7.37D-09
 ErrMax= 7.37D-09  0.00D+00 EMaxC= 1.00D+00 BMatC= 4.49D-15 BMatP= 1.33D-13
 IDIUse=1 WtCom= 1.00D+00 WtEn= 0.00D+00
 Coeff-Com:  0.308D-07 0.107D-06 0.225D-05-0.729D-06-0.195D-04-0.177D-03
 Coeff-Com: -0.136D-02-0.483D-02-0.109D-02 0.165D+00 0.843D+00
 Coeff:      0.308D-07 0.107D-06 0.225D-05-0.729D-06-0.195D-04-0.177D-03
 Coeff:     -0.136D-02-0.483D-02-0.109D-02 0.165D+00 0.843D+00
 Gap=     0.214 Goal=   None    Shift=    0.000
 RMSDP=2.03D-09 MaxDP=3.12D-08 DE= 2.73D-12 OVMax= 4.03D-08

 SCF Done:  E(RB3LYP) =  -438.587165851     A.U. after   11 cycles
            NFock= 11  Conv=0.20D-08     -V/T= 1.9998
 KE= 4.386958949063D+02 PE=-1.171665962715D+03 EE= 2.289372773806D+02
 Leave Link  502 at Wed Sep  2 14:55:55 2015, MaxMem=    33554432 cpu:         6.8
 (Enter /group/hpc-share/gaussian/2009D/g09/l701.exe)
 Compute integral first derivatives.
 ... and contract with generalized density number  0.
 Leave Link  701 at Wed Sep  2 14:55:55 2015, MaxMem=    33554432 cpu:         1.2
 (Enter /group/hpc-share/gaussian/2009D/g09/l702.exe)
 L702 exits ... SP integral derivatives will be done elsewhere.
 Leave Link  702 at Wed Sep  2 14:55:55 2015, MaxMem=    33554432 cpu:         0.2
 (Enter /group/hpc-share/gaussian/2009D/g09/l703.exe)
 Compute integral first derivatives, UseDBF=F ICtDFT=           0.
 Integral derivatives from FoFJK, PRISM(SPDF).
 Calling FoFJK, ICntrl=      2127 FMM=F ISym2X=1 I1Cent= 0 IOpClX= 0 NMat=1 NMatS=1 NMatT=0.
 FoFJK:  IHMeth= 1 ICntrl=    2127 DoSepK=F KAlg= 0 I1Cent=   0 FoldK=F
 IRaf=         0 NMat=   1 IRICut=       1 DoRegI=T DoRafI=F ISym2E= 1.
 FoFCou: FMM=F IPFlag=           0 FMFlag=      100000 FMFlg1=         800
         NFxFlg=           0 DoJE=F BraDBF=F KetDBF=F FulRan=T
         wScrn=  0.000000 ICntrl=    2127 IOpCl=  0 I1Cent=           0 NGrid=           0
         NMat0=    1 NMatS0=      1 NMatT0=    0 NMatD0=    1 NMtDS0=    0 NMtDT0=    0
 Petite list used in FoFCou.
 Leave Link  703 at Wed Sep  2 14:55:55 2015, MaxMem=    33554432 cpu:         3.7
 (Enter /group/hpc-share/gaussian/2009D/g09/l716.exe)
 Dipole        = 3.34887562D-01 5.36563021D-01-2.22044605D-16
 ***** Axes restored to original set *****
 -------------------------------------------------------------------
 Center     Atomic                   Forces (Hartrees/Bohr)
 Number     Number              X              Y              Z
 -------------------------------------------------------------------
      1       16          -0.301015077    0.000000000   -0.230175751
      2        1           0.011738078    0.000000000    0.309203570
      3        6           0.253062020    0.000000000   -0.062397521
      4        1           0.005009179    0.000000000   -0.003585375
      5        1           0.015602900    0.002849971   -0.006522461
      6        1           0.015602900   -0.002849971   -0.006522461
 -------------------------------------------------------------------
 Cartesian Forces:  Max     0.309203570 RMS     0.130787274
 Leave Link  716 at Wed Sep  2 14:55:56 2015, MaxMem=    33554432 cpu:         0.2
 (Enter /group/hpc-share/gaussian/2009D/g09/l103.exe)

 GradGradGradGradGradGradGradGradGradGradGradGradGradGradGradGradGradGrad
 Berny optimization.
 Using GEDIIS/GDIIS optimizer.
 FormGI is forming the generalized inverse of G from B-inverse, IUseBI=4.
 Internal  Forces:  Max     0.309209262 RMS     0.111687248
 Search for a local minimum.
 Step number   2 out of a maximum of   25
 All quantities printed in internal units (Hartrees-Bohrs-Radians)
 RMS Force = .11169D+00 SwitMx=.10000D-02 MixMth= 1
 Mixed Optimization -- RFO/linear search
 Update second derivatives using D2CorX and points    1    2
 DE= -1.81D-01 DEPred=-1.93D-01 R= 9.41D-01
 TightC=F SS=  1.41D+00  RLast= 3.00D-01 DXNew= 5.0454D-01 9.0035D-01
 Trust test= 9.41D-01 RLast= 3.00D-01 DXMaxT set to 5.05D-01
 The second derivative matrix:
                          R1        R2        R3        R4        R5
           R1           1.40458
           R2           0.02375   1.14275
           R3           0.00047  -0.00027   0.34928
           R4           0.00972   0.00458   0.00003   0.34956
           R5           0.00972   0.00458   0.00003   0.00028   0.34956
           A1           0.02146   0.01509   0.00010   0.00040   0.00040
           A2           0.01387   0.00876   0.00006   0.00030   0.00030
           A3           0.02258   0.01244   0.00009   0.00057   0.00057
           A4           0.02258   0.01244   0.00009   0.00057   0.00057
           A5          -0.01792  -0.01004  -0.00007  -0.00045  -0.00045
           A6          -0.01792  -0.01004  -0.00007  -0.00045  -0.00045
           A7          -0.01776  -0.00996  -0.00007  -0.00044  -0.00044
           D1           0.00000   0.00000   0.00000   0.00000   0.00000
           D2          -0.00146  -0.00079  -0.00001  -0.00004  -0.00004
           D3           0.00146   0.00079   0.00001   0.00004   0.00004
                          A1        A2        A3        A4        A5
           A1           0.16012
           A2           0.00023   0.16024
           A3           0.00066   0.00054   0.16111
           A4           0.00066   0.00054   0.00111   0.16111
           A5          -0.00049  -0.00042  -0.00086  -0.00086   0.16066
           A6          -0.00049  -0.00042  -0.00086  -0.00086   0.00066
           A7          -0.00049  -0.00041  -0.00085  -0.00085   0.00066
           D1           0.00000   0.00000   0.00000   0.00000   0.00000
           D2          -0.00005  -0.00004  -0.00007  -0.00007   0.00006
           D3           0.00005   0.00004   0.00007   0.00007  -0.00006
                          A6        A7        D1        D2        D3
           A6           0.16066
           A7           0.00066   0.16065
           D1           0.00000   0.00000   0.05662
           D2           0.00006   0.00006   0.00000   0.05662
           D3          -0.00006  -0.00006   0.00000   0.00000   0.05662
 ITU=  1  0
 Use linear search instead of GDIIS.
 Linear search step of   0.600 exceeds DXMaxT=   0.505 but not scaled.
 Quartic linear search produced a step of  2.00000.
 Iteration  1 RMS(Cart)=  0.09567774 RMS(Int)=  0.07957419
 Iteration  2 RMS(Cart)=  0.07145690 RMS(Int)=  0.01616027
 Iteration  3 RMS(Cart)=  0.01303270 RMS(Int)=  0.00121119
 Iteration  4 RMS(Cart)=  0.00005235 RMS(Int)=  0.00121077
 Iteration  5 RMS(Cart)=  0.00000000 RMS(Int)=  0.00121077
 ITry= 1 IFail=0 DXMaxC= 4.10D-01 DCOld= 1.00D+10 DXMaxT= 5.05D-01 DXLimC= 3.00D+00 Rises=F
 ClnCor:  largest displacement from symmetrization is 1.51D-10 for atom     6.
 Variable       Old X    -DE/DX   Delta X   Delta X   Delta X     New X
                                 (Linear)    (Quad)   (Total)
    R1        2.02629   0.30921   0.46211   0.00000   0.46211   2.48840
    R2        2.82644   0.29942   0.36164   0.00000   0.36164   3.18807
    R3        2.06174   0.00368   0.00765   0.00000   0.00765   2.06939
    R4        2.06910   0.00784   0.02238   0.00000   0.02238   2.09148
    R5        2.06910   0.00784   0.02238   0.00000   0.02238   2.09148
    A1        1.89226  -0.02327  -0.03674   0.00000  -0.03674   1.85552
    A2        1.91314  -0.00234   0.00502   0.00000   0.00448   1.91763
    A3        1.94127   0.01846   0.06128   0.00000   0.05932   2.00060
    A4        1.94127   0.01846   0.06128   0.00000   0.05932   2.00060
    A5        1.88878  -0.01200  -0.04371   0.00000  -0.04419   1.84459
    A6        1.88878  -0.01200  -0.04371   0.00000  -0.04419   1.84459
    A7        1.88903  -0.01227  -0.04321   0.00000  -0.04604   1.84299
    D1        3.14159   0.00000   0.00000   0.00000   0.00000   3.14159
    D2       -1.05355  -0.00481  -0.01270   0.00000  -0.01437  -1.06792
    D3        1.05355   0.00481   0.01270   0.00000   0.01437   1.06792
         Item               Value     Threshold  Converged?
 Maximum Force            0.309209     0.000450     NO 
 RMS     Force            0.111687     0.000300     NO 
 Maximum Displacement     0.409557     0.001800     NO 
 RMS     Displacement     0.174195     0.001200     NO 
 Predicted change in Energy=-2.315189D-02
 Lowest energy point so far.  Saving SCF results.
 GradGradGradGradGradGradGradGradGradGradGradGradGradGradGradGradGradGrad

 Leave Link  103 at Wed Sep  2 14:55:56 2015, MaxMem=    33554432 cpu:         0.1
 (Enter /group/hpc-share/gaussian/2009D/g09/l202.exe)
                          Input orientation:                          
 ---------------------------------------------------------------------
 Center     Atomic      Atomic             Coordinates (Angstroms)
 Number     Number       Type             X           Y           Z
 ---------------------------------------------------------------------
      1         16           0       -0.231723    0.000000   -0.039888
      2          1           0       -0.224826    0.000000    1.276900
      3          6           0        1.384907    0.000000   -0.522241
      4          1           0        1.447152    0.000000   -1.615545
      5          1           0        1.965470    0.881547   -0.189446
      6          1           0        1.965470   -0.881547   -0.189446
 ---------------------------------------------------------------------
                    Distance matrix (angstroms):
                    1          2          3          4          5
     1  S    0.000000
     2  H    1.316805   0.000000
     3  C    1.687056   2.414156   0.000000
     4  H    2.302460   3.340920   1.095075   0.000000
     5  H    2.372161   2.779333   1.106766   1.754861   0.000000
     6  H    2.372161   2.779333   1.106766   1.754861   1.763094
                    6
     6  H    0.000000
 Stoichiometry    CH4S
 Framework group  CS[SG(CH2S),X(H2)]
 Deg. of freedom     8
 Full point group                 CS      NOp   2
 RotChk:  IX=0 Diff= 4.57D-02
 Largest Abelian subgroup         CS      NOp   2
 Largest concise Abelian subgroup CS      NOp   2
                         Standard orientation:                         
 ---------------------------------------------------------------------
 Center     Atomic      Atomic             Coordinates (Angstroms)
 Number     Number       Type             X           Y           Z
 ---------------------------------------------------------------------
      1         16           0       -0.046297   -0.619547    0.000000
      2          1           0        1.217493   -0.989426    0.000000
      3          6           0       -0.046297    1.067509    0.000000
      4          1           0       -1.076164    1.439748    0.000000
      5          1           0        0.438598    1.528686    0.881547
      6          1           0        0.438598    1.528686   -0.881547
 ---------------------------------------------------------------------
 Rotational constants (GHZ):    108.8470290     14.4003533     13.8062460
 Leave Link  202 at Wed Sep  2 14:55:56 2015, MaxMem=    33554432 cpu:         0.1
 (Enter /group/hpc-share/gaussian/2009D/g09/l301.exe)
 Standard basis: Aug-CC-pVDZ (5D, 7F)
 Ernie: Thresh=  0.10000D-02 Tol=  0.10000D-05 Strict=F.
 Ernie:  12 primitive shells out of 106 were deleted.
 There are    62 symmetry adapted cartesian basis functions of A'  symmetry.
 There are    28 symmetry adapted cartesian basis functions of A"  symmetry.
 There are    58 symmetry adapted basis functions of A'  symmetry.
 There are    28 symmetry adapted basis functions of A"  symmetry.
    86 basis functions,   168 primitive gaussians,    90 cartesian basis functions
    13 alpha electrons       13 beta electrons
       nuclear repulsion energy        58.7524269987 Hartrees.
 IExCor=  402 DFT=T Ex+Corr=B3LYP ExCW=0 ScaHFX=  0.200000
 ScaDFX=  0.800000  0.720000  1.000000  0.810000 ScalE2=  1.000000  1.000000
 IRadAn=      0 IRanWt=     -1 IRanGd=            0 ICorTp=0 IEmpDi=  4
 NAtoms=    6 NActive=    6 NUniq=    5 SFac= 1.44D+00 NAtFMM=   60 NAOKFM=F Big=F
 Integral buffers will be    131072 words long.
 Raffenetti 2 integral format.
 Two-electron integral symmetry is turned on.
 Leave Link  301 at Wed Sep  2 14:55:56 2015, MaxMem=    33554432 cpu:         0.5
 (Enter /group/hpc-share/gaussian/2009D/g09/l302.exe)
 NPDir=0 NMtPBC=     1 NCelOv=     1 NCel=       1 NClECP=     1 NCelD=      1
         NCelK=      1 NCelE2=     1 NClLst=     1 CellRange=     0.0.
 One-electron integrals computed using PRISM.
 One-electron integral symmetry used in STVInt
 NBasis=    86 RedAO= T EigKep=  5.29D-04  NBF=    58    28
 NBsUse=    86 1.00D-06 EigRej= -1.00D+00 NBFU=    58    28
 Precomputing XC quadrature grid using
 IXCGrd= 4 IRadAn=           0 IRanWt=          -1 IRanGd=           0 AccXCQ= 0.00D+00.
 Generated NRdTot=       0 NPtTot=           0 NUsed=           0 NTot=          32
 NSgBfM=    90    90    90    90    90 MxSgAt=     6 MxSgA2=     6.
 Leave Link  302 at Wed Sep  2 14:55:56 2015, MaxMem=    33554432 cpu:         1.8
 (Enter /group/hpc-share/gaussian/2009D/g09/l303.exe)
 DipDrv:  MaxL=1.
 Leave Link  303 at Wed Sep  2 14:55:56 2015, MaxMem=    33554432 cpu:         0.2
 (Enter /group/hpc-share/gaussian/2009D/g09/l401.exe)
 Initial guess from the checkpoint file:  "methanethiol.chk"
 B after Tr=     0.000000    0.000000    0.000000
         Rot=    0.999985    0.000000    0.000000   -0.005403 Ang=  -0.62 deg.
 Guess basis will be translated and rotated to current coordinates.
 JPrj=2 DoOrth=T DoCkMO=T.
 Initial guess orbital symmetries:
       Occupied  (A') (A') (A') (A') (A') (A") (A') (A') (A') (A")
                 (A') (A') (A")
       Virtual   (A') (A') (A') (A') (A') (A') (A') (A') (A') (A')
                 (A') (A') (A') (A') (A') (A') (A') (A') (A') (A')
                 (A') (A') (A') (A') (A') (A') (A') (A') (A') (A')
                 (A') (A') (A') (A') (A') (A') (A') (A') (A') (A')
                 (A') (A') (A') (A') (A') (A') (A') (A') (A") (A")
                 (A") (A") (A") (A") (A") (A") (A") (A") (A") (A")
                 (A") (A") (A") (A") (A") (A") (A") (A") (A") (A")
                 (A") (A") (A")
 The electronic state of the initial guess is 1-A'.
 Generating alternative initial guess.
 ExpMin= 2.97D-02 ExpMax= 1.11D+05 ExpMxC= 1.07D+03 IAcc=3 IRadAn=         5 AccDes= 0.00D+00
 Harris functional with IExCor=  402 and IRadAn=       5 diagonalized for initial guess.
 HarFok:  IExCor=  402 AccDes= 0.00D+00 IRadAn=         5 IDoV= 1 UseB2=F ITyADJ=14
 ICtDFT=  3500011 ScaDFX=  1.000000  1.000000  1.000000  1.000000
 FoFCou: FMM=F IPFlag=           0 FMFlag=      100000 FMFlg1=           0
         NFxFlg=           0 DoJE=T BraDBF=F KetDBF=T FulRan=T
         wScrn=  0.000000 ICntrl=     500 IOpCl=  0 I1Cent=   200000004 NGrid=           0
         NMat0=    1 NMatS0=      1 NMatT0=    0 NMatD0=    1 NMtDS0=    0 NMtDT0=    0
 Petite list used in FoFCou.
 Harris En= -438.672032557648    
 Leave Link  401 at Wed Sep  2 14:55:56 2015, MaxMem=    33554432 cpu:         2.3
 (Enter /group/hpc-share/gaussian/2009D/g09/l502.exe)
 Closed shell SCF:
 Using DIIS extrapolation, IDIIS=  1040.
 Integral symmetry usage will be decided dynamically.
 Keep R1 ints in memory in symmetry-blocked form, NReq=10613770.
 IVT=       44378 IEndB=       44378 NGot=    33554432 MDV=    29940160
 LenX=    29940160 LenY=    29931619
 Requested convergence on RMS density matrix=1.00D-08 within 128 cycles.
 Requested convergence on MAX density matrix=1.00D-06.
 Requested convergence on             energy=1.00D-06.
 No special actions if energy rises.
 FoFCou: FMM=F IPFlag=           0 FMFlag=           0 FMFlg1=           0
         NFxFlg=           0 DoJE=F BraDBF=F KetDBF=F FulRan=T
         wScrn=  0.000000 ICntrl=     600 IOpCl=  0 I1Cent=           0 NGrid=           0
         NMat0=    1 NMatS0=   3741 NMatT0=    0 NMatD0=    1 NMtDS0=    0 NMtDT0=    0
 Petite list used in FoFCou.

 Cycle   1  Pass 1  IDiag  1:
 E= -438.687569586453    
 DIIS: error= 1.14D-02 at cycle   1 NSaved=   1.
 NSaved= 1 IEnMin= 1 EnMin= -438.687569586453     IErMin= 1 ErrMin= 1.14D-02
 ErrMax= 1.14D-02  0.00D+00 EMaxC= 1.00D-01 BMatC= 2.28D-02 BMatP= 2.28D-02
 IDIUse=3 WtCom= 8.86D-01 WtEn= 1.14D-01
 Coeff-Com:  0.100D+01
 Coeff-En:   0.100D+01
 Coeff:      0.100D+01
 Recover alternate guess density for next cycle.
 RMSDP=1.01D-02 MaxDP=2.72D-01              OVMax= 0.00D+00

 Cycle   2  Pass 1  IDiag  1:
 E= -438.652340036576     Delta-E=        0.035229549877 Rises=F Damp=F
 Switch densities from cycles 1 and 2 for lowest energy.
 DIIS: error= 2.29D-02 at cycle   2 NSaved=   2.
 NSaved= 2 IEnMin= 1 EnMin= -438.687569586453     IErMin= 1 ErrMin= 1.14D-02
 ErrMax= 2.29D-02  0.00D+00 EMaxC= 1.00D+00 BMatC= 5.97D-02 BMatP= 2.28D-02
 IDIUse=1 WtCom= 1.00D+00 WtEn= 0.00D+00
 Coeff-Com:  0.764D+00 0.236D+00
 Coeff:      0.764D+00 0.236D+00
 Gap=     0.405 Goal=   None    Shift=    0.000
 RMSDP=8.77D-03 MaxDP=2.53D-01 DE= 3.52D-02 OVMax= 6.26D-02

 Cycle   3  Pass 1  IDiag  1:
 E= -438.704829724631     Delta-E=       -0.052489688055 Rises=F Damp=F
 DIIS: error= 8.78D-03 at cycle   3 NSaved=   3.
 NSaved= 3 IEnMin= 3 EnMin= -438.704829724631     IErMin= 3 ErrMin= 8.78D-03
 ErrMax= 8.78D-03  0.00D+00 EMaxC= 1.00D+00 BMatC= 8.97D-03 BMatP= 2.28D-02
 IDIUse=1 WtCom= 1.00D+00 WtEn= 0.00D+00
 Coeff-Com:  0.690D-01 0.244D+00 0.687D+00
 Coeff:      0.690D-01 0.244D+00 0.687D+00
 Gap=     0.217 Goal=   None    Shift=    0.000
 RMSDP=1.18D-03 MaxDP=2.41D-02 DE=-5.25D-02 OVMax= 3.05D-02

 Cycle   4  Pass 1  IDiag  1:
 E= -438.713654008455     Delta-E=       -0.008824283824 Rises=F Damp=F
 DIIS: error= 1.89D-03 at cycle   4 NSaved=   4.
 NSaved= 4 IEnMin= 4 EnMin= -438.713654008455     IErMin= 4 ErrMin= 1.89D-03
 ErrMax= 1.89D-03  0.00D+00 EMaxC= 1.00D+00 BMatC= 4.20D-04 BMatP= 8.97D-03
 IDIUse=1 WtCom= 1.00D+00 WtEn= 0.00D+00
 Coeff-Com: -0.831D-02 0.805D-01 0.270D+00 0.658D+00
 Coeff:     -0.831D-02 0.805D-01 0.270D+00 0.658D+00
 Gap=     0.224 Goal=   None    Shift=    0.000
 RMSDP=3.33D-04 MaxDP=8.52D-03 DE=-8.82D-03 OVMax= 9.41D-03

 Cycle   5  Pass 1  IDiag  1:
 E= -438.714166456900     Delta-E=       -0.000512448445 Rises=F Damp=F
 DIIS: error= 3.70D-04 at cycle   5 NSaved=   5.
 NSaved= 5 IEnMin= 5 EnMin= -438.714166456900     IErMin= 5 ErrMin= 3.70D-04
 ErrMax= 3.70D-04  0.00D+00 EMaxC= 1.00D+00 BMatC= 1.60D-05 BMatP= 4.20D-04
 IDIUse=1 WtCom= 1.00D+00 WtEn= 0.00D+00
 Coeff-Com: -0.247D-02 0.117D-01 0.569D-01 0.213D+00 0.721D+00
 Coeff:     -0.247D-02 0.117D-01 0.569D-01 0.213D+00 0.721D+00
 Gap=     0.223 Goal=   None    Shift=    0.000
 RMSDP=6.28D-05 MaxDP=1.48D-03 DE=-5.12D-04 OVMax= 1.66D-03

 Cycle   6  Pass 1  IDiag  1:
 E= -438.714184819602     Delta-E=       -0.000018362702 Rises=F Damp=F
 DIIS: error= 1.18D-04 at cycle   6 NSaved=   6.
 NSaved= 6 IEnMin= 6 EnMin= -438.714184819602     IErMin= 6 ErrMin= 1.18D-04
 ErrMax= 1.18D-04  0.00D+00 EMaxC= 1.00D+00 BMatC= 8.28D-07 BMatP= 1.60D-05
 IDIUse=1 WtCom= 1.00D+00 WtEn= 0.00D+00
 Coeff-Com: -0.779D-03 0.123D-02 0.992D-02 0.533D-01 0.276D+00 0.660D+00
 Coeff:     -0.779D-03 0.123D-02 0.992D-02 0.533D-01 0.276D+00 0.660D+00
 Gap=     0.223 Goal=   None    Shift=    0.000
 RMSDP=1.43D-05 MaxDP=1.94D-04 DE=-1.84D-05 OVMax= 3.63D-04

 Cycle   7  Pass 1  IDiag  1:
 E= -438.714185791590     Delta-E=       -0.000000971988 Rises=F Damp=F
 DIIS: error= 1.29D-05 at cycle   7 NSaved=   7.
 NSaved= 7 IEnMin= 7 EnMin= -438.714185791590     IErMin= 7 ErrMin= 1.29D-05
 ErrMax= 1.29D-05  0.00D+00 EMaxC= 1.00D+00 BMatC= 1.52D-08 BMatP= 8.28D-07
 IDIUse=1 WtCom= 1.00D+00 WtEn= 0.00D+00
 Coeff-Com: -0.451D-04-0.571D-04 0.115D-02 0.824D-02 0.511D-01 0.184D+00
 Coeff-Com:  0.756D+00
 Coeff:     -0.451D-04-0.571D-04 0.115D-02 0.824D-02 0.511D-01 0.184D+00
 Coeff:      0.756D+00
 Gap=     0.223 Goal=   None    Shift=    0.000
 RMSDP=2.45D-06 MaxDP=4.14D-05 DE=-9.72D-07 OVMax= 8.59D-05

 Cycle   8  Pass 1  IDiag  1:
 E= -438.714185815031     Delta-E=       -0.000000023441 Rises=F Damp=F
 DIIS: error= 3.19D-06 at cycle   8 NSaved=   8.
 NSaved= 8 IEnMin= 8 EnMin= -438.714185815031     IErMin= 8 ErrMin= 3.19D-06
 ErrMax= 3.19D-06  0.00D+00 EMaxC= 1.00D+00 BMatC= 7.96D-10 BMatP= 1.52D-08
 IDIUse=1 WtCom= 1.00D+00 WtEn= 0.00D+00
 Coeff-Com:  0.852D-07-0.538D-04-0.159D-03 0.188D-03 0.224D-02 0.204D-01
 Coeff-Com:  0.207D+00 0.771D+00
 Coeff:      0.852D-07-0.538D-04-0.159D-03 0.188D-03 0.224D-02 0.204D-01
 Coeff:      0.207D+00 0.771D+00
 Gap=     0.223 Goal=   None    Shift=    0.000
 RMSDP=4.88D-07 MaxDP=6.33D-06 DE=-2.34D-08 OVMax= 1.75D-05

 Cycle   9  Pass 1  IDiag  1:
 E= -438.714185816171     Delta-E=       -0.000000001140 Rises=F Damp=F
 DIIS: error= 7.06D-07 at cycle   9 NSaved=   9.
 NSaved= 9 IEnMin= 9 EnMin= -438.714185816171     IErMin= 9 ErrMin= 7.06D-07
 ErrMax= 7.06D-07  0.00D+00 EMaxC= 1.00D+00 BMatC= 6.11D-11 BMatP= 7.96D-10
 IDIUse=1 WtCom= 1.00D+00 WtEn= 0.00D+00
 Coeff-Com:  0.204D-05-0.239D-04-0.137D-03-0.329D-03-0.144D-02 0.509D-03
 Coeff-Com:  0.586D-01 0.315D+00 0.628D+00
 Coeff:      0.204D-05-0.239D-04-0.137D-03-0.329D-03-0.144D-02 0.509D-03
 Coeff:      0.586D-01 0.315D+00 0.628D+00
 Gap=     0.223 Goal=   None    Shift=    0.000
 RMSDP=1.21D-07 MaxDP=1.54D-06 DE=-1.14D-09 OVMax= 3.08D-06

 Cycle  10  Pass 1  IDiag  1:
 E= -438.714185816254     Delta-E=       -0.000000000083 Rises=F Damp=F
 DIIS: error= 6.26D-08 at cycle  10 NSaved=  10.
 NSaved=10 IEnMin=10 EnMin= -438.714185816254     IErMin=10 ErrMin= 6.26D-08
 ErrMax= 6.26D-08  0.00D+00 EMaxC= 1.00D+00 BMatC= 3.20D-13 BMatP= 6.11D-11
 IDIUse=1 WtCom= 1.00D+00 WtEn= 0.00D+00
 Coeff-Com:  0.128D-06 0.220D-07-0.775D-05-0.528D-04-0.240D-03-0.808D-03
 Coeff-Com: -0.327D-03 0.391D-02 0.513D-01 0.946D+00
 Coeff:      0.128D-06 0.220D-07-0.775D-05-0.528D-04-0.240D-03-0.808D-03
 Coeff:     -0.327D-03 0.391D-02 0.513D-01 0.946D+00
 Gap=     0.223 Goal=   None    Shift=    0.000
 RMSDP=1.70D-08 MaxDP=2.63D-07 DE=-8.25D-11 OVMax= 3.68D-07

 Cycle  11  Pass 1  IDiag  1:
 E= -438.714185816251     Delta-E=        0.000000000002 Rises=F Damp=F
 DIIS: error= 8.62D-09 at cycle  11 NSaved=  11.
 NSaved=11 IEnMin=10 EnMin= -438.714185816254     IErMin=11 ErrMin= 8.62D-09
 ErrMax= 8.62D-09  0.00D+00 EMaxC= 1.00D+00 BMatC= 1.07D-14 BMatP= 3.20D-13
 IDIUse=1 WtCom= 1.00D+00 WtEn= 0.00D+00
 Coeff-Com:  0.489D-07 0.202D-06 0.390D-06-0.717D-05-0.298D-04-0.159D-03
 Coeff-Com: -0.741D-03-0.286D-02-0.227D-03 0.175D+00 0.829D+00
 Coeff:      0.489D-07 0.202D-06 0.390D-06-0.717D-05-0.298D-04-0.159D-03
 Coeff:     -0.741D-03-0.286D-02-0.227D-03 0.175D+00 0.829D+00
 Gap=     0.223 Goal=   None    Shift=    0.000
 RMSDP=2.06D-09 MaxDP=3.11D-08 DE= 2.27D-12 OVMax= 4.28D-08

 SCF Done:  E(RB3LYP) =  -438.714185816     A.U. after   11 cycles
            NFock= 11  Conv=0.21D-08     -V/T= 2.0025
 KE= 4.376175486582D+02 PE=-1.157647652048D+03 EE= 2.225634905744D+02
 Leave Link  502 at Wed Sep  2 14:55:57 2015, MaxMem=    33554432 cpu:         6.8
 (Enter /group/hpc-share/gaussian/2009D/g09/l701.exe)
 Compute integral first derivatives.
 ... and contract with generalized density number  0.
 Leave Link  701 at Wed Sep  2 14:55:58 2015, MaxMem=    33554432 cpu:         1.1
 (Enter /group/hpc-share/gaussian/2009D/g09/l702.exe)
 L702 exits ... SP integral derivatives will be done elsewhere.
 Leave Link  702 at Wed Sep  2 14:55:58 2015, MaxMem=    33554432 cpu:         0.1
 (Enter /group/hpc-share/gaussian/2009D/g09/l703.exe)
 Compute integral first derivatives, UseDBF=F ICtDFT=           0.
 Integral derivatives from FoFJK, PRISM(SPDF).
 Calling FoFJK, ICntrl=      2127 FMM=F ISym2X=1 I1Cent= 0 IOpClX= 0 NMat=1 NMatS=1 NMatT=0.
 FoFJK:  IHMeth= 1 ICntrl=    2127 DoSepK=F KAlg= 0 I1Cent=   0 FoldK=F
 IRaf=         0 NMat=   1 IRICut=       1 DoRegI=T DoRafI=F ISym2E= 1.
 FoFCou: FMM=F IPFlag=           0 FMFlag=      100000 FMFlg1=         800
         NFxFlg=           0 DoJE=F BraDBF=F KetDBF=F FulRan=T
         wScrn=  0.000000 ICntrl=    2127 IOpCl=  0 I1Cent=           0 NGrid=           0
         NMat0=    1 NMatS0=      1 NMatT0=    0 NMatD0=    1 NMtDS0=    0 NMtDT0=    0
 Petite list used in FoFCou.
 Leave Link  703 at Wed Sep  2 14:55:58 2015, MaxMem=    33554432 cpu:         3.4
 (Enter /group/hpc-share/gaussian/2009D/g09/l716.exe)
 Dipole        = 3.06854889D-01 5.23436417D-01 2.22044605D-16
 ***** Axes restored to original set *****
 -------------------------------------------------------------------
 Center     Atomic                   Forces (Hartrees/Bohr)
 Number     Number              X              Y              Z
 -------------------------------------------------------------------
      1       16          -0.080797025    0.000000000   -0.012990167
      2        1           0.010791344    0.000000000    0.021571042
      3        6           0.082201314    0.000000000   -0.003530869
      4        1          -0.005630013    0.000000000   -0.002082613
      5        1          -0.003282810   -0.001065007   -0.001483697
      6        1          -0.003282810    0.001065007   -0.001483697
 -------------------------------------------------------------------
 Cartesian Forces:  Max     0.082201314 RMS     0.028000445
 Leave Link  716 at Wed Sep  2 14:55:58 2015, MaxMem=    33554432 cpu:         0.2
 (Enter /group/hpc-share/gaussian/2009D/g09/l103.exe)

 GradGradGradGradGradGradGradGradGradGradGradGradGradGradGradGradGradGrad
 Berny optimization.
 Using GEDIIS/GDIIS optimizer.
 FormGI is forming the generalized inverse of G from B-inverse, IUseBI=4.
 Internal  Forces:  Max     0.069535652 RMS     0.020245867
 Search for a local minimum.
 Step number   3 out of a maximum of   25
 All quantities printed in internal units (Hartrees-Bohrs-Radians)
 RMS Force = .20246D-01 SwitMx=.10000D-02 MixMth= 1
 Mixed Optimization -- RFO/linear search
 Update second derivatives using D2CorX and points    2    3
 The second derivative matrix:
                          R1        R2        R3        R4        R5
           R1           0.83826
           R2          -0.28292   0.99168
           R3          -0.00101  -0.00084   0.34928
           R4           0.00385   0.00300   0.00004   0.34967
           R5           0.00385   0.00300   0.00004   0.00039   0.34967
           A1           0.01205   0.00969   0.00007   0.00027   0.00027
           A2           0.00740   0.00589   0.00005   0.00030   0.00030
           A3           0.01132   0.00888   0.00010   0.00072   0.00072
           A4           0.01132   0.00888   0.00010   0.00072   0.00072
           A5          -0.00995  -0.00790  -0.00008  -0.00059  -0.00059
           A6          -0.00995  -0.00790  -0.00008  -0.00059  -0.00059
           A7          -0.01081  -0.00867  -0.00009  -0.00063  -0.00063
           D1           0.00000   0.00000   0.00000   0.00000   0.00000
           D2          -0.00181  -0.00146  -0.00001  -0.00009  -0.00009
           D3           0.00181   0.00146   0.00001   0.00009   0.00009
                          A1        A2        A3        A4        A5
           A1           0.15997
           A2           0.00011   0.16019
           A3           0.00042   0.00052   0.16131
           A4           0.00042   0.00052   0.00131   0.16131
           A5          -0.00032  -0.00042  -0.00107  -0.00107   0.16087
           A6          -0.00032  -0.00042  -0.00107  -0.00107   0.00087
           A7          -0.00032  -0.00044  -0.00113  -0.00113   0.00092
           D1           0.00000   0.00000   0.00000   0.00000   0.00000
           D2          -0.00004  -0.00006  -0.00016  -0.00016   0.00013
           D3           0.00004   0.00006   0.00016   0.00016  -0.00013
                          A6        A7        D1        D2        D3
           A6           0.16087
           A7           0.00092   0.16098
           D1           0.00000   0.00000   0.05662
           D2           0.00013   0.00014   0.00000   0.05664
           D3          -0.00013  -0.00014   0.00000  -0.00002   0.05664
 ITU=  0  1  0
 Use linear search instead of GDIIS.
     Eigenvalues ---    0.05662   0.11338   0.11751   0.15939   0.16000
     Eigenvalues ---    0.16000   0.16326   0.34926   0.34928   0.34991
     Eigenvalues ---    0.62477   1.20810
 RFO step:  Lambda=-9.27020754D-03 EMin= 5.66153456D-02
 Quartic linear search produced a step of  0.41763.
 Iteration  1 RMS(Cart)=  0.07181431 RMS(Int)=  0.00939664
 Iteration  2 RMS(Cart)=  0.01855185 RMS(Int)=  0.00109278
 Iteration  3 RMS(Cart)=  0.00016724 RMS(Int)=  0.00106950
 Iteration  4 RMS(Cart)=  0.00000002 RMS(Int)=  0.00106950
 ITry= 1 IFail=0 DXMaxC= 2.20D-01 DCOld= 1.00D+10 DXMaxT= 5.05D-01 DXLimC= 3.00D+00 Rises=F
 ClnCor:  largest displacement from symmetrization is 1.06D-11 for atom     6.
 Variable       Old X    -DE/DX   Delta X   Delta X   Delta X     New X
                                 (Linear)    (Quad)   (Total)
    R1        2.48840   0.02163   0.19299  -0.01792   0.17507   2.66347
    R2        3.18807   0.06954   0.15103   0.02757   0.17860   3.36667
    R3        2.06939   0.00176   0.00320   0.00608   0.00927   2.07866
    R4        2.09148  -0.00302   0.00935  -0.01108  -0.00173   2.08975
    R5        2.09148  -0.00302   0.00935  -0.01108  -0.00173   2.08975
    A1        1.85552  -0.02658  -0.01534  -0.19950  -0.21484   1.64068
    A2        1.91763  -0.00874   0.00187  -0.06879  -0.06675   1.85088
    A3        2.00060   0.00020   0.02478   0.01509   0.03829   2.03889
    A4        2.00060   0.00020   0.02478   0.01509   0.03829   2.03889
    A5        1.84459   0.00279  -0.01845   0.00673  -0.01158   1.83302
    A6        1.84459   0.00279  -0.01845   0.00673  -0.01158   1.83302
    A7        1.84299   0.00351  -0.01923   0.02667   0.00498   1.84798
    D1        3.14159   0.00000   0.00000   0.00000   0.00000   3.14159
    D2       -1.06792  -0.00259  -0.00600  -0.03098  -0.03872  -1.10664
    D3        1.06792   0.00259   0.00600   0.03098   0.03872   1.10664
         Item               Value     Threshold  Converged?
 Maximum Force            0.069536     0.000450     NO 
 RMS     Force            0.020246     0.000300     NO 
 Maximum Displacement     0.220370     0.001800     NO 
 RMS     Displacement     0.081051     0.001200     NO 
 Predicted change in Energy=-9.103752D-04
 Lowest energy point so far.  Saving SCF results.
 GradGradGradGradGradGradGradGradGradGradGradGradGradGradGradGradGradGrad

 Leave Link  103 at Wed Sep  2 14:55:58 2015, MaxMem=    33554432 cpu:         0.1
 (Enter /group/hpc-share/gaussian/2009D/g09/l202.exe)
[...]
 Gap=     0.223 Goal=   None    Shift=    0.000
 RMSDP=1.95D-08 MaxDP=3.09D-07 DE=-2.80D-11 OVMax= 5.70D-07

 Cycle   8  Pass 1  IDiag  1:
 E= -438.726543223977     Delta-E=       -0.000000000002 Rises=F Damp=F
 DIIS: error= 1.35D-08 at cycle   8 NSaved=   8.
 NSaved= 8 IEnMin= 8 EnMin= -438.726543223977     IErMin= 8 ErrMin= 1.35D-08
 ErrMax= 1.35D-08  0.00D+00 EMaxC= 1.00D-01 BMatC= 2.30D-14 BMatP= 1.75D-12
 IDIUse=1 WtCom= 1.00D+00 WtEn= 0.00D+00
 Coeff-Com:  0.232D-04-0.683D-03-0.951D-03-0.637D-03 0.825D-02 0.511D-01
 Coeff-Com:  0.146D+00 0.797D+00
 Coeff:      0.232D-04-0.683D-03-0.951D-03-0.637D-03 0.825D-02 0.511D-01
 Coeff:      0.146D+00 0.797D+00
 Gap=     0.223 Goal=   None    Shift=    0.000
 RMSDP=2.94D-09 MaxDP=3.56D-08 DE=-1.59D-12 OVMax= 1.15D-07

 SCF Done:  E(RB3LYP) =  -438.726543224     A.U. after    8 cycles
            NFock=  8  Conv=0.29D-08     -V/T= 2.0031
 KE= 4.373690868313D+02 PE=-1.151425467929D+03 EE= 2.196146320801D+02
 Leave Link  502 at Wed Sep  2 14:56:16 2015, MaxMem=    33554432 cpu:         5.6
 (Enter /group/hpc-share/gaussian/2009D/g09/l701.exe)
 Compute integral first derivatives.
 ... and contract with generalized density number  0.
 Leave Link  701 at Wed Sep  2 14:56:16 2015, MaxMem=    33554432 cpu:         1.5
 (Enter /group/hpc-share/gaussian/2009D/g09/l702.exe)
 L702 exits ... SP integral derivatives will be done elsewhere.
 Leave Link  702 at Wed Sep  2 14:56:16 2015, MaxMem=    33554432 cpu:         0.2
 (Enter /group/hpc-share/gaussian/2009D/g09/l703.exe)
 Compute integral first derivatives, UseDBF=F ICtDFT=           0.
 Integral derivatives from FoFJK, PRISM(SPDF).
 Calling FoFJK, ICntrl=      2127 FMM=F ISym2X=1 I1Cent= 0 IOpClX= 0 NMat=1 NMatS=1 NMatT=0.
 FoFJK:  IHMeth= 1 ICntrl=    2127 DoSepK=F KAlg= 0 I1Cent=   0 FoldK=F
 IRaf=         0 NMat=   1 IRICut=       1 DoRegI=T DoRafI=F ISym2E= 1.
 FoFCou: FMM=F IPFlag=           0 FMFlag=      100000 FMFlg1=         800
         NFxFlg=           0 DoJE=F BraDBF=F KetDBF=F FulRan=T
         wScrn=  0.000000 ICntrl=    2127 IOpCl=  0 I1Cent=           0 NGrid=           0
         NMat0=    1 NMatS0=      1 NMatT0=    0 NMatD0=    1 NMtDS0=    0 NMtDT0=    0
 Petite list used in FoFCou.
 Leave Link  703 at Wed Sep  2 14:56:17 2015, MaxMem=    33554432 cpu:         3.6
 (Enter /group/hpc-share/gaussian/2009D/g09/l716.exe)
 Dipole        = 2.78557707D-01 5.57962261D-01 2.22044605D-16
 ***** Axes restored to original set *****
 -------------------------------------------------------------------
 Center     Atomic                   Forces (Hartrees/Bohr)
 Number     Number              X              Y              Z
 -------------------------------------------------------------------
      1       16           0.000086516    0.000000000   -0.000050946
      2        1           0.000010504    0.000000000   -0.000000846
      3        6          -0.000150355    0.000000000    0.000052285
      4        1           0.000023484    0.000000000   -0.000017318
      5        1           0.000014926   -0.000009269    0.000008413
      6        1           0.000014926    0.000009269    0.000008413
 -------------------------------------------------------------------
 Cartesian Forces:  Max     0.000150355 RMS     0.000045425
 Leave Link  716 at Wed Sep  2 14:56:17 2015, MaxMem=    33554432 cpu:         0.2
 (Enter /group/hpc-share/gaussian/2009D/g09/l103.exe)

 GradGradGradGradGradGradGradGradGradGradGradGradGradGradGradGradGradGrad
 Berny optimization.
 Using GEDIIS/GDIIS optimizer.
 FormGI is forming the generalized inverse of G from B-inverse, IUseBI=4.
 Internal  Forces:  Max     0.000112322 RMS     0.000033620
 Search for a local minimum.
 Step number  10 out of a maximum of   25
 All quantities printed in internal units (Hartrees-Bohrs-Radians)
 RMS Force = .33620D-04 SwitMx=.10000D-02 MixMth= 2
 Mixed Optimization -- En-DIIS/RFO-DIIS
 Swapping is turned off.
 Update second derivatives using D2CorX and points    3    4    5    6    7
                                                      8    9   10
 DE= -5.60D-06 DEPred=-5.29D-06 R= 1.06D+00
 TightC=F SS=  1.41D+00  RLast= 9.42D-03 DXNew= 1.4270D+00 2.8253D-02
 Trust test= 1.06D+00 RLast= 9.42D-03 DXMaxT set to 8.49D-01
 The second derivative matrix:
                          R1        R2        R3        R4        R5
           R1           0.28113
           R2           0.02566   0.23622
           R3           0.00003   0.00901   0.35252
           R4           0.00654   0.01301  -0.00137   0.34744
           R5           0.00654   0.01301  -0.00137  -0.00185   0.34744
           A1           0.00328   0.03733   0.00989   0.00243   0.00243
           A2           0.01011   0.02061   0.00314  -0.00125  -0.00125
           A3           0.00099   0.02810  -0.00333  -0.00339  -0.00339
           A4           0.00099   0.02810  -0.00333  -0.00339  -0.00339
           A5           0.00157  -0.02363   0.00024   0.00239   0.00239
           A6           0.00157  -0.02363   0.00024   0.00239   0.00239
           A7          -0.01469  -0.02884   0.00440   0.00370   0.00370
           D1           0.00000   0.00000   0.00000   0.00000   0.00000
           D2          -0.00093  -0.00172   0.00218  -0.00028  -0.00028
           D3           0.00093   0.00172  -0.00218   0.00028   0.00028
                          A1        A2        A3        A4        A5
           A1           0.21876
           A2           0.02285   0.16673
           A3          -0.00301  -0.00468   0.15433
           A4          -0.00301  -0.00468  -0.00567   0.15433
           A5          -0.00841  -0.00097   0.00541   0.00541   0.15697
           A6          -0.00841  -0.00097   0.00541   0.00541  -0.00303
           A7           0.00513   0.00635   0.00531   0.00531  -0.00510
           D1           0.00000   0.00000   0.00000   0.00000   0.00000
           D2           0.01084   0.00436  -0.00203  -0.00203  -0.00034
           D3          -0.01084  -0.00436   0.00203   0.00203   0.00034
                          A6        A7        D1        D2        D3
           A6           0.15697
           A7          -0.00510   0.15402
           D1           0.00000   0.00000   0.05662
           D2          -0.00034   0.00174   0.00000   0.05830
           D3           0.00034  -0.00174   0.00000  -0.00168   0.05830
 ITU=  1  1  1  1  1  1  1  0  1  0
     Eigenvalues ---    0.05662   0.10107   0.11772   0.12232   0.15975
     Eigenvalues ---    0.16000   0.20866   0.25979   0.30410   0.34928
     Eigenvalues ---    0.35206   0.35589
 En-DIIS/RFO-DIIS IScMMF=        0 using points:    10    9
 RFO step:  Lambda=-4.03713332D-08.
 NNeg= 0 NP= 2 Switch=  2.50D-03 Rises=F DC=  5.60D-06 SmlDif=  1.00D-05
 RMS Error=  0.8253048676D-04 NUsed= 2 EDIIS=F
 DidBck=F Rises=F RFO-DIIS coefs:    1.06704   -0.06704
 Iteration  1 RMS(Cart)=  0.00018807 RMS(Int)=  0.00000029
 Iteration  2 RMS(Cart)=  0.00000003 RMS(Int)=  0.00000029
 ITry= 1 IFail=0 DXMaxC= 4.77D-04 DCOld= 1.00D+10 DXMaxT= 8.49D-01 DXLimC= 3.00D+00 Rises=F
 ClnCor:  largest displacement from symmetrization is 4.30D-13 for atom     4.
 Variable       Old X    -DE/DX   Delta X   Delta X   Delta X     New X
                                 (Linear)    (Quad)   (Total)
    R1        2.56362   0.00001  -0.00008   0.00014   0.00006   2.56368
    R2        3.47838  -0.00011  -0.00020  -0.00042  -0.00062   3.47776
    R3        2.07171   0.00002   0.00004   0.00004   0.00008   2.07179
    R4        2.07032   0.00000   0.00007  -0.00004   0.00004   2.07036
    R5        2.07032   0.00000   0.00007  -0.00004   0.00004   2.07036
    A1        1.69496  -0.00005  -0.00005  -0.00010  -0.00014   1.69482
    A2        1.85100   0.00002   0.00011   0.00015   0.00026   1.85126
    A3        1.93995   0.00001   0.00029  -0.00006   0.00022   1.94017
    A4        1.93995   0.00001   0.00029  -0.00006   0.00022   1.94017
    A5        1.90064  -0.00001  -0.00019   0.00002  -0.00017   1.90047
    A6        1.90064  -0.00001  -0.00019   0.00002  -0.00017   1.90047
    A7        1.92928  -0.00003  -0.00030  -0.00005  -0.00034   1.92894
    D1        3.14159   0.00000   0.00000   0.00000   0.00000   3.14159
    D2       -1.07841   0.00001  -0.00001   0.00008   0.00006  -1.07835
    D3        1.07841  -0.00001   0.00001  -0.00008  -0.00006   1.07835
         Item               Value     Threshold  Converged?
 Maximum Force            0.000112     0.000450     YES
 RMS     Force            0.000034     0.000300     YES
 Maximum Displacement     0.000477     0.001800     YES
 RMS     Displacement     0.000188     0.001200     YES
 Predicted change in Energy=-5.108486D-08
 Optimization completed.
    -- Stationary point found.
                           ----------------------------
                           !   Optimized Parameters   !
                           ! (Angstroms and Degrees)  !
 --------------------------                            --------------------------
 ! Name  Definition              Value          Derivative Info.                !
 --------------------------------------------------------------------------------
 ! R1    R(1,2)                  1.3566         -DE/DX =    0.0                 !
 ! R2    R(1,3)                  1.8407         -DE/DX =   -0.0001              !
 ! R3    R(3,4)                  1.0963         -DE/DX =    0.0                 !
 ! R4    R(3,5)                  1.0956         -DE/DX =    0.0                 !
 ! R5    R(3,6)                  1.0956         -DE/DX =    0.0                 !
 ! A1    A(2,1,3)               97.114          -DE/DX =    0.0                 !
 ! A2    A(1,3,4)              106.0548         -DE/DX =    0.0                 !
 ! A3    A(1,3,5)              111.151          -DE/DX =    0.0                 !
 ! A4    A(1,3,6)              111.151          -DE/DX =    0.0                 !
 ! A5    A(4,3,5)              108.8988         -DE/DX =    0.0                 !
 ! A6    A(4,3,6)              108.8988         -DE/DX =    0.0                 !
 ! A7    A(5,3,6)              110.5395         -DE/DX =    0.0                 !
 ! D1    D(2,1,3,4)            180.0            -DE/DX =    0.0                 !
 ! D2    D(2,1,3,5)            -61.7885         -DE/DX =    0.0                 !
 ! D3    D(2,1,3,6)             61.7885         -DE/DX =    0.0                 !
 --------------------------------------------------------------------------------
 Lowest energy point so far.  Saving SCF results.
 GradGradGradGradGradGradGradGradGradGradGradGradGradGradGradGradGradGrad

 Largest change from initial coordinates is atom    2       0.318 Angstoms.
 Leave Link  103 at Wed Sep  2 14:56:17 2015, MaxMem=    33554432 cpu:         0.1
 (Enter /group/hpc-share/gaussian/2009D/g09/l202.exe)
                          Input orientation:                          
 ---------------------------------------------------------------------
 Center     Atomic      Atomic             Coordinates (Angstroms)
 Number     Number       Type             X           Y           Z
 ---------------------------------------------------------------------
      1         16           0       -0.337925    0.000000   -0.061609
      2          1           0       -0.154932    0.000000    1.282602
      3          6           0        1.441140    0.000000   -0.533861
      4          1           0        1.463879    0.000000   -1.629927
      5          1           0        1.947143    0.900385   -0.168436
      6          1           0        1.947143   -0.900385   -0.168436
 ---------------------------------------------------------------------
                    Distance matrix (angstroms):
                    1          2          3          4          5
     1  S    0.000000
     2  H    1.356610   0.000000
     3  C    1.840678   2.418054   0.000000
     4  H    2.388748   3.332173   1.096302   0.000000
     5  H    2.458382   2.708307   1.095567   1.783309   0.000000
     6  H    2.458382   2.708307   1.095567   1.783309   1.800770
                    6
     6  H    0.000000
 Stoichiometry    CH4S
 Framework group  CS[SG(CH2S),X(H2)]
 Deg. of freedom     8
 Full point group                 CS      NOp   2
 RotChk:  IX=0 Diff= 6.80D-16
 Largest Abelian subgroup         CS      NOp   2
 Largest concise Abelian subgroup CS      NOp   2
                         Standard orientation:                         
 ---------------------------------------------------------------------
 Center     Atomic      Atomic             Coordinates (Angstroms)
 Number     Number       Type             X           Y           Z
 ---------------------------------------------------------------------
      1         16           0       -0.048410   -0.672765    0.000000
      2          1           0        1.297757   -0.840774    0.000000
      3          6           0       -0.048410    1.167912    0.000000
      4          1           0       -1.101953    1.471101    0.000000
      5          1           0        0.434606    1.563223    0.900385
      6          1           0        0.434606    1.563223   -0.900385
 ---------------------------------------------------------------------
 Rotational constants (GHZ):    101.4344057     12.6220652     12.1038705
 Leave Link  202 at Wed Sep  2 14:56:17 2015, MaxMem=    33554432 cpu:         0.0
 (Enter /group/hpc-share/gaussian/2009D/g09/l601.exe)
 Copying SCF densities to generalized density rwf, IOpCl= 0 IROHF=0.

 **********************************************************************

            Population analysis using the SCF density.

 **********************************************************************

 Orbital symmetries:
       Occupied  (A') (A') (A') (A') (A') (A") (A') (A') (A') (A")
                 (A') (A') (A")
       Virtual   (A') (A') (A') (A") (A') (A') (A') (A") (A') (A")
                 (A') (A') (A') (A") (A') (A') (A") (A') (A") (A')
                 (A') (A') (A") (A') (A") (A') (A') (A") (A") (A')
                 (A') (A') (A') (A") (A') (A") (A') (A") (A') (A')
                 (A") (A') (A") (A') (A') (A") (A') (A") (A') (A')
                 (A') (A') (A") (A') (A') (A") (A') (A") (A") (A')
                 (A") (A') (A') (A') (A") (A') (A') (A') (A") (A')
                 (A') (A") (A')
 The electronic state is 1-A'.
 Alpha  occ. eigenvalues --  -88.88387 -10.22020  -7.94447  -5.90880  -5.90532
 Alpha  occ. eigenvalues --   -5.89838  -0.78078  -0.64964  -0.45137  -0.43290
 Alpha  occ. eigenvalues --   -0.39429  -0.33742  -0.24317
 Alpha virt. eigenvalues --   -0.01988  -0.00141   0.02283   0.02345   0.03164
 Alpha virt. eigenvalues --    0.06279   0.07985   0.08696   0.08734   0.09862
 Alpha virt. eigenvalues --    0.09913   0.11094   0.13254   0.14491   0.15362
 Alpha virt. eigenvalues --    0.17321   0.20590   0.22274   0.25043   0.27138
 Alpha virt. eigenvalues --    0.30892   0.32421   0.33712   0.36654   0.37338
 Alpha virt. eigenvalues --    0.39661   0.41841   0.42105   0.44275   0.44562
 Alpha virt. eigenvalues --    0.46039   0.48551   0.48972   0.48995   0.55030
 Alpha virt. eigenvalues --    0.55049   0.55890   0.60625   0.61838   0.72071
 Alpha virt. eigenvalues --    0.75718   0.78424   0.80888   0.85275   0.87288
 Alpha virt. eigenvalues --    0.93797   0.94696   0.99054   0.99958   1.04824
 Alpha virt. eigenvalues --    1.07484   1.12635   1.18652   1.19006   1.42475
 Alpha virt. eigenvalues --    1.53459   1.55431   1.60635   1.62941   1.64673
 Alpha virt. eigenvalues --    1.78045   1.80613   1.82945   1.90154   1.90568
 Alpha virt. eigenvalues --    1.93378   2.07925   2.15777   2.21337   2.24536
 Alpha virt. eigenvalues --    2.48631   2.56276   2.59033
          Condensed to atoms (all electrons):
               1          2          3          4          5          6
     1  S   15.659961   0.268233   0.204762  -0.174580  -0.057304  -0.057304
     2  H    0.268233   0.831629  -0.056209   0.031622  -0.038487  -0.038487
     3  C    0.204762  -0.056209   4.248059   0.384609   0.310971   0.310971
     4  H   -0.174580   0.031622   0.384609   1.423937  -0.203523  -0.203523
     5  H   -0.057304  -0.038487   0.310971  -0.203523   1.512983  -0.276526
     6  H   -0.057304  -0.038487   0.310971  -0.203523  -0.276526   1.512983
 Mulliken charges:
               1
     1  S    0.156232
     2  H    0.001700
     3  C    0.596837
     4  H   -0.258543
     5  H   -0.248113
     6  H   -0.248113
 Sum of Mulliken charges =   0.00000
 Mulliken charges with hydrogens summed into heavy atoms:
               1
     1  S    0.157932
     3  C   -0.157932
 Electronic spatial extent (au):  <R**2>=            147.2866
 Charge=              0.0000 electrons
 Dipole moment (field-independent basis, Debye):
    X=              0.7080    Y=              1.4182    Z=              0.0000  Tot=              1.5851
 Quadrupole moment (field-independent basis, Debye-Ang):
   XX=            -19.4745   YY=            -20.6050   ZZ=            -22.8952
   XY=             -1.2335   XZ=              0.0000   YZ=              0.0000
 Traceless Quadrupole moment (field-independent basis, Debye-Ang):
   XX=              1.5171   YY=              0.3865   ZZ=             -1.9036
   XY=             -1.2335   XZ=              0.0000   YZ=              0.0000
 Octapole moment (field-independent basis, Debye-Ang**2):
  XXX=              0.7222  YYY=             -0.2328  ZZZ=              0.0000  XYY=              1.1864
  XXY=             -0.1374  XXZ=              0.0000  XZZ=              0.8347  YZZ=              2.7562
  YYZ=              0.0000  XYZ=              0.0000
 Hexadecapole moment (field-independent basis, Debye-Ang**3):
 XXXX=            -36.8229 YYYY=           -140.7717 ZZZZ=            -39.0885 XXXY=             -0.6126
 XXXZ=              0.0000 YYYX=              0.7647 YYYZ=              0.0000 ZZZX=              0.0000
 ZZZY=              0.0000 XXYY=            -28.6395 XXZZ=            -13.4519 YYZZ=            -30.2655
 XXYZ=              0.0000 YYXZ=              0.0000 ZZXY=              1.7315
 N-N= 5.571520579400D+01 E-N=-1.151425467482D+03  KE= 4.373690868313D+02
 Symmetry A'   KE= 3.968495713989D+02
 Symmetry A"   KE= 4.051951543241D+01
 No NMR shielding tensors so no spin-rotation constants.
 Leave Link  601 at Wed Sep  2 14:56:17 2015, MaxMem=    33554432 cpu:         1.6
 (Enter /group/hpc-share/gaussian/2009D/g09/l9999.exe)
 B after Tr=     0.344053    0.000000    0.123696
         Rot=    0.999647    0.000000   -0.026575    0.000000 Ang=  -3.05 deg.
 Final structure in terms of initial Z-matrix:
 S
 H,1,hs2
 C,1,cs3,2,csh3
 H,3,hc4,1,hcs4,2,dih4,0
 H,3,hc5,1,hcs5,4,dih5,0
 H,3,hc6,1,hcs6,4,dih6,0
      Variables:
 hs2=1.35661016
 cs3=1.84067763
 csh3=97.11402632
 hc4=1.09630169
 hcs4=106.05477047
 dih4=180.
 hc5=1.0955673
 hcs5=111.15103842
 dih5=118.21151967
 hc6=1.0955673
 hcs6=111.15103842
 dih6=-118.21151967
 1\1\GINC-HPC-CN12\FOpt\RB3LYP\Aug-CC-pVDZ\C1H4S1\6498IVANOVM\02-Sep-20
 15\0\\#P b3lyp/aug-cc-pvdz opt\\methanethiol\\0,1\S,-0.3483419582,0.,-
 0.078598806\H,-0.1653490816,0.,1.2656127554\C,1.4307231604,0.,-0.55085
 02603\H,1.4534623072,0.,-1.6469161034\H,1.936726373,0.9003849773,-0.18
 54253661\H,1.936726373,-0.9003849773,-0.1854253661\\Version=EM64L-G09R
 evD.01\State=1-A'\HF=-438.7265432\RMSD=2.935e-09\RMSF=4.543e-05\Dipole
 =0.6107536,0.,0.1260806\Quadrupole=-0.1121081,-1.4153125,1.5274205,0.,
 -0.5879049,0.\PG=CS [SG(C1H2S1),X(H2)]\\@


 WE HAVE LEARNED THAT NOTHING IS SIMPLE AND
 RATIONAL EXCEPT WHAT WE OURSELVES HAVE INVENTED;
 THAT GOD THINKS IN TERMS NEITHER OF EUCLID OR RIEMANN; THAT SCIENCE HAS "EXPLAINED" NOTHING;
 THAT THE MORE WE KNOW THE MORE FANTASTIC THE WORLD BECOMES
 AND THE PROFOUNDER THE SURROUNDING DARKNESS.
   --  ALDOUS HUXLEY
 Job cpu time:       0 days  0 hours  2 minutes 58.3 seconds.
 File lengths (MBytes):  RWF=      6 Int=      0 D2E=      0 Chk=      2 Scr=      1
 Normal termination of Gaussian 09 at Wed Sep  2 14:56:17 2015.
