 Entering Gaussian System, Link 0=g09
 Input=methanimine.com
 Output=methanimine.log
 AtFile(1): methanimine.zmat
             c
             h   1 hc2
             h    1 hc3         2 hch3
             n    1 nc4         3 nch4          2 dih4
             h    4 hn5         1 hnc5          3 dih5
            variables
            hc2         1.089000
            hc3         1.089000
            hch3        109.471
            nc4         1.440000
            nch4        109.471
            dih4        180.000
            hn5         1.008000
            hnc5        109.471
            dih5        180.000
 AtFile(1): /home/MARQNET/talipovm/basis-library/def2-SV(P)+d.gbs
            !  Def2-SV(P)  EMSL  Basis Set Exchange Library   3/29/11 8:36 AM
            ! Elements                             References
            ! --------                             ----------
            ! H He Li Be B C N O F Ne Na Mg Al Si P S Cl Ar K Ca Sc Ti V Cr Mn Fe Co Ni Cu Zn Ga Ge As Se Br Kr Rb Sr Y Zr Nb Mo Tc Ru Rh Pd Ag Cd In Sn Sb Te I Xe Cs Ba La Hf Ta W Re Os Ir Pt Au Hg Tl Pb Bi Po At Rn : F. Weigend and R. Ahlrichs, Phys. Chem. Chem. Phys., Balanced basis sets of split valence, triple zeta valence and quadruple zeta valence
            ! quality for H to Rn: Design and assessment of accuracy 7, 3297 (2005).
            !
            -H     0
            S   3   1.00
                 13.0107010              0.19682158E-01
                  1.9622572              0.13796524
                  0.44453796             0.47831935
            S   1   1.00
                  0.12194962             1.0000000
            ****
            -B     0
            S   5   1.00
                839.31830086            -0.55929201074E-02
                126.26464843            -0.41565520771E-01
                 28.620600763           -0.18299816983
                  7.8793722710          -0.46540391866
                  2.4088857172          -0.44173884791
            S   1   1.00
                  0.25105109036          1.0000000
            S   1   1.00
                  0.83648866069E-01            1.0000000
            P   3   1.00
                  6.0332223619          -0.35603672456E-01
                  1.2499157866          -0.19895775769
                  0.33871676350         -0.50850202618
            P   1   1.00
                  0.96415632351E-01            1.0000000
            D   1   1.00
                  0.5000000              1.0000000
            ****
            -C     0
            S   5   1.00
               1238.4016938              0.54568832082E-02
                186.29004992             0.40638409211E-01
                 42.251176346            0.18025593888
                 11.676557932            0.46315121755
                  3.5930506482           0.44087173314
            S   1   1.00
                  0.40245147363          1.0000000
            S   1   1.00
                  0.13090182668          1.0000000
            P   3   1.00
                  9.4680970621           0.38387871728E-01
                  2.0103545142           0.21117025112
                  0.54771004707          0.51328172114
            P   1   1.00
                  0.15268613795          1.0000000
            D   1   1.00
                  0.8000000              1.0000000
            ****
            -N     0
            S   5   1.00
               1712.8415853             -0.53934125305E-02
                257.64812677            -0.40221581118E-01
                 58.458245853           -0.17931144990
                 16.198367905           -0.46376317823
                  5.0052600809          -0.44171422662
            S   1   1.00
                  0.58731856571          1.0000000
            S   1   1.00
                  0.18764592253          1.0000000
            P   3   1.00
                 13.571470233           -0.40072398852E-01
                  2.9257372874          -0.21807045028
                  0.79927750754         -0.51294466049
            P   1   1.00
                  0.21954348034          1.0000000
            D   1   1.00
                  1.0000000              1.0000000
            ****
            -O     0
            S   5   1.00
               2266.1767785             -0.53431809926E-02
                340.87010191            -0.39890039230E-01
                 77.363135167           -0.17853911985
                 21.479644940           -0.46427684959
                  6.6589433124          -0.44309745172
            S   1   1.00
                  0.80975975668          1.0000000
            S   1   1.00
                  0.25530772234          1.0000000
            P   3   1.00
                 17.721504317            0.43394573193E-01
                  3.8635505440           0.23094120765
                  1.0480920883           0.51375311064
            P   1   1.00
                  0.27641544411          1.0000000
            D   1   1.00
                  1.2000000              1.0000000
            ****
            -F     0
            S   5   1.00
               2894.8325990             -0.53408255515E-02
                435.41939120            -0.39904258866E-01
                 98.843328866           -0.17912768038
                 27.485198001           -0.46758090825
                  8.5405498171          -0.44653131020
            S   1   1.00
                  1.0654578038           1.0000000
            S   1   1.00
                  0.33247346748          1.0000000
            P   3   1.00
                 22.696633924           -0.45212874436E-01
                  4.9872339257          -0.23754317067
                  1.3491613954          -0.51287353587
            P   1   1.00
                  0.34829881977          1.0000000
            D   1   1.00
                  1.4000000              1.0000000
            ****
            -S     0
            S   5   1.00
               9184.9303010             -0.22294387756E-02
               1381.5105503             -0.16683029937E-01
                313.87147580            -0.75262436116E-01
                 88.053870623           -0.19376827038
                 27.039914905           -0.17718020803
            S   3   1.00
                 45.648731303           -0.10736062573
                  4.9664522326           0.65066293018
                  2.0116242047           0.59712155354
            S   1   1.00
                  0.35661077013          1.0000000
            S   1   1.00
                  0.13507221477          1.0000000
            P   5   1.00
                261.98233439            -0.92729929822E-02
                 61.306894736           -0.66547669241E-01
                 19.103729887           -0.24828595903
                  6.6567720378          -0.48703847402
                  2.3959635161          -0.39337850312
            P   1   1.00
                  0.61776161679          1.0000000
            P   1   1.00
                  0.16993376871          1.0000000
            D   1   1.00
                  0.5500000              1.0000000
            D   1   1.00
                  2.9940000              1.0000000
            ****
            -Cl     0
            S   5   1.00
              10449.8275660              0.19708362484E-02
               1571.7365221              0.14754727977E-01
                357.12065523             0.66679112875E-01
                100.25185935             0.17228924084
                 30.812727554            0.15883786100
            S   3   1.00
                 51.923789434           -0.10009298909
                  5.7045760975           0.60841752753
                  2.3508376809           0.54352153355
            S   1   1.00
                  0.44605124672          1.0000000
            S   1   1.00
                  0.16848856190          1.0000000
            P   5   1.00
                307.66790569            -0.87801484118E-02
                 72.102015515           -0.63563355471E-01
                 22.532680262           -0.24016428276
                  7.8991765444          -0.47798866557
                  2.8767268321          -0.38515850005
            P   1   1.00
                  0.77459363955          1.0000000
            P   1   1.00
                  0.21037699698          1.0000000
            D   1   1.00
                  0.6500000              1.0000000
            D   1   1.00
                  3.6520000              1.0000000
            ****
            -Al     0
            S   5   1.00
               5887.5727030              0.13483347987E-02
                885.61225996             0.10071576809E-01
                201.13604899             0.45132454056E-01
                 56.284974674            0.11461268043
                 17.229551243            0.10159608943
            S   3   1.00
                 29.340249922            0.69347454208E-01
                  3.0439630420          -0.42528117679
                  1.1285539518          -0.41449832210
            S   1   1.00
                  0.14234175160          1.0000000
            S   1   1.00
                  0.54400192313E-01            1.0000000
            P   5   1.00
                145.11918809             0.63963373134E-02
                 33.717894833            0.44189359965E-01
                 10.369863083            0.15581575993
                  3.5135616036           0.28635286951
                  1.1980050273           0.22921423248
            P   1   1.00
                  0.26583005913          1.0000000
            P   1   1.00
                  0.71003361994E-01            1.0000000
            D   1   1.00
                  0.3000000              1.0000000
            D   1   1.00
                  1.1950000              1.0000000
            ****
            -Ti     0
            S   6   1.00
              42961.5121850              0.39127635355E-02
               6450.9759169              0.29969820489E-01
               1467.7210915              0.14836352707
                414.20997355             0.51347285324
                134.48715840             1.0335365483
                 46.122209796            0.77854233930
            S   3   1.00
                 89.447762543           -0.28385401259
                 10.223346060            1.6772785333
                  4.1353774271           1.2411928456
            S   3   1.00
                  6.7896181452          -0.78399994518E-02
                  1.1106730691           0.25495493019E-01
                  0.47565975578          0.16061172892E-01
            S   1   1.00
                  0.65986956934E-01            1.0000000
            S   1   1.00
                  0.25210342250E-01            1.0000000
            P   5   1.00
                522.03684782             0.19754179642E-01
                122.68649489             0.14460677619
                 38.572903611            0.54669004165
                 13.672169319            1.0531647540
                  5.0118529359           0.69111213363
            P   3   1.00
                  2.4131928282           0.75803437136
                  0.93252270050          1.3036241399
                  0.35429058390          0.53638653300
            P   1   1.00
                  0.1015610              1.0000000
            D   4   1.00
                 23.465125957            0.26536380115E-01
                  6.3332593832           0.13796453963
                  2.0766489946           0.35312644228
                  0.69027361954          0.48647124166
            D   1   1.00
                  0.21088738554          1.0000000
            ****
            -P     0
            S   5   1.00
               8002.4795106              0.57503489302E-02
               1203.6813590              0.43007628959E-01
                273.44227031             0.19363986252
                 76.655541517            0.49651693399
                 23.516927435            0.44983262479
            S   3   1.00
                 39.791683439            0.95188129789E-01
                  4.2770343323          -0.57649840368
                  1.6940256888          -0.54239583865
            S   1   1.00
                  0.27567674644          1.0000000
            S   1   1.00
                  0.10495590099          1.0000000
            P   5   1.00
                219.50755823             0.92100565257E-02
                 51.274155030            0.65409765745E-01
                 15.921595892            0.24033730279
                  5.5069913481           0.46318321788
                  1.9537719426           0.37392563382
            P   1   1.00
                  0.47803397932          1.0000000
            P   1   1.00
                  0.13657952621          1.0000000
            D   1   1.00
                  0.4500000              1.0000000
            D   1   1.00
                   2.5060000              1.0000000
            ****
 Initial command:
 /group/hpc-share/gaussian/2009D/g09/l1.exe "/scratch/gaussian/g_methanimine.com-809494.hn1.marqnet.mu.edu/Gau-12021.inp" -scrdir="/scratch/gaussian/g_methanimine.com-809494.hn1.marqnet.mu.edu/"
 Entering Link 1 = /group/hpc-share/gaussian/2009D/g09/l1.exe PID=     12025.
  
 Copyright (c) 1988,1990,1992,1993,1995,1998,2003,2009,2013,
            Gaussian, Inc.  All Rights Reserved.
  
 This is part of the Gaussian(R) 09 program.  It is based on
 the Gaussian(R) 03 system (copyright 2003, Gaussian, Inc.),
 the Gaussian(R) 98 system (copyright 1998, Gaussian, Inc.),
 the Gaussian(R) 94 system (copyright 1995, Gaussian, Inc.),
 the Gaussian 92(TM) system (copyright 1992, Gaussian, Inc.),
 the Gaussian 90(TM) system (copyright 1990, Gaussian, Inc.),
 the Gaussian 88(TM) system (copyright 1988, Gaussian, Inc.),
 the Gaussian 86(TM) system (copyright 1986, Carnegie Mellon
 University), and the Gaussian 82(TM) system (copyright 1983,
 Carnegie Mellon University). Gaussian is a federally registered
 trademark of Gaussian, Inc.
  
 This software contains proprietary and confidential information,
 including trade secrets, belonging to Gaussian, Inc.
  
 This software is provided under written license and may be
 used, copied, transmitted, or stored only in accord with that
 written license.
  
 The following legend is applicable only to US Government
 contracts under FAR:
  
                    RESTRICTED RIGHTS LEGEND
  
 Use, reproduction and disclosure by the US Government is
 subject to restrictions as set forth in subparagraphs (a)
 and (c) of the Commercial Computer Software - Restricted
 Rights clause in FAR 52.227-19.
  
 Gaussian, Inc.
 340 Quinnipiac St., Bldg. 40, Wallingford CT 06492
  
  
 ---------------------------------------------------------------
 Warning -- This program may not be used in any manner that
 competes with the business of Gaussian, Inc. or will provide
 assistance to any competitor of Gaussian, Inc.  The licensee
 of this program is prohibited from giving any competitor of
 Gaussian, Inc. access to this program.  By using this program,
 the user acknowledges that Gaussian, Inc. is engaged in the
 business of creating and licensing software in the field of
 computational chemistry and represents and warrants to the
 licensee that it is not a competitor of Gaussian, Inc. and that
 it will not use this program in any manner prohibited above.
 ---------------------------------------------------------------
  

 Cite this work as:
 Gaussian 09, Revision D.01,
 M. J. Frisch, G. W. Trucks, H. B. Schlegel, G. E. Scuseria, 
 M. A. Robb, J. R. Cheeseman, G. Scalmani, V. Barone, B. Mennucci, 
 G. A. Petersson, H. Nakatsuji, M. Caricato, X. Li, H. P. Hratchian, 
 A. F. Izmaylov, J. Bloino, G. Zheng, J. L. Sonnenberg, M. Hada, 
 M. Ehara, K. Toyota, R. Fukuda, J. Hasegawa, M. Ishida, T. Nakajima, 
 Y. Honda, O. Kitao, H. Nakai, T. Vreven, J. A. Montgomery, Jr., 
 J. E. Peralta, F. Ogliaro, M. Bearpark, J. J. Heyd, E. Brothers, 
 K. N. Kudin, V. N. Staroverov, T. Keith, R. Kobayashi, J. Normand, 
 K. Raghavachari, A. Rendell, J. C. Burant, S. S. Iyengar, J. Tomasi, 
 M. Cossi, N. Rega, J. M. Millam, M. Klene, J. E. Knox, J. B. Cross, 
 V. Bakken, C. Adamo, J. Jaramillo, R. Gomperts, R. E. Stratmann, 
 O. Yazyev, A. J. Austin, R. Cammi, C. Pomelli, J. W. Ochterski, 
 R. L. Martin, K. Morokuma, V. G. Zakrzewski, G. A. Voth, 
 P. Salvador, J. J. Dannenberg, S. Dapprich, A. D. Daniels, 
 O. Farkas, J. B. Foresman, J. V. Ortiz, J. Cioslowski, 
 and D. J. Fox, Gaussian, Inc., Wallingford CT, 2013.
 
 ******************************************
 Gaussian 09:  EM64L-G09RevD.01 24-Apr-2013
                 2-Sep-2015 
 ******************************************
 %nproc=8
 Will use up to    8 processors via shared memory.
 %chk=methanimine.chk
 ------------------
 #P PBE1PBE/gen opt
 ------------------
 1/14=-1,18=20,19=15,26=3,38=1/1,3;
 2/9=110,12=2,17=6,18=5,40=1/2;
 3/5=7,11=2,16=1,25=1,30=1,71=1,74=-13/1,2,3;
 4//1;
 5/5=2,38=5/2;
 6/7=2,8=2,9=2,10=2,28=1/1;
 7//1,2,3,16;
 1/14=-1,18=20,19=15,26=3/3(2);
 2/9=110/2;
 99//99;
 2/9=110/2;
 3/5=7,6=1,11=2,16=1,25=1,30=1,71=1,74=-13,82=7/1,2,3;
 4/5=5,16=3,69=1/1;
 5/5=2,38=5/2;
 7//1,2,3,16;
 1/14=-1,18=20,19=15,26=3/3(-5);
 2/9=110/2;
 6/7=2,8=2,9=2,10=2,19=2,28=1/1;
 99/9=1/99;
 Leave Link    1 at Wed Sep  2 15:35:43 2015, MaxMem=           0 cpu:         0.4
 (Enter /group/hpc-share/gaussian/2009D/g09/l101.exe)
 -----------
 methanimine
 -----------
 Symbolic Z-matrix:
 Charge =  0 Multiplicity = 1
 c
 h                    1    hc2
 h                    1    hc3      2    hch3
 n                    1    nc4      3    nch4     2    dih4     0
 h                    4    hn5      1    hnc5     3    dih5     0
       Variables:
  hc2                   1.089                    
  hc3                   1.089                    
  hch3                109.471                    
  nc4                   1.44                     
  nch4                109.471                    
  dih4                180.                       
  hn5                   1.008                    
  hnc5                109.471                    
  dih5                180.                       
 
     3 tetrahedral angles replaced.
 Add atom      1 valence  3 ND=      2 dihedral       2      1      3      4
 NAtoms=      5 NQM=        5 NQMF=       0 NMMI=      0 NMMIF=      0
                NMic=       0 NMicF=      0.
                    Isotopes and Nuclear Properties:
 (Nuclear quadrupole moments (NQMom) in fm**2, nuclear magnetic moments (NMagM)
  in nuclear magnetons)

  Atom         1           2           3           4           5
 IAtWgt=          12           1           1          14           1
 AtmWgt=  12.0000000   1.0078250   1.0078250  14.0030740   1.0078250
 NucSpn=           0           1           1           2           1
 AtZEff=   0.0000000   0.0000000   0.0000000   0.0000000   0.0000000
 NQMom=    0.0000000   0.0000000   0.0000000   2.0440000   0.0000000
 NMagM=    0.0000000   2.7928460   2.7928460   0.4037610   2.7928460
 AtZNuc=   6.0000000   1.0000000   1.0000000   7.0000000   1.0000000
 Leave Link  101 at Wed Sep  2 15:35:43 2015, MaxMem=    33554432 cpu:         1.1
 (Enter /group/hpc-share/gaussian/2009D/g09/l103.exe)

 GradGradGradGradGradGradGradGradGradGradGradGradGradGradGradGradGradGrad
 Berny optimization.
 Initialization pass.
                           ----------------------------
                           !    Initial Parameters    !
                           ! (Angstroms and Degrees)  !
 --------------------------                            --------------------------
 ! Name  Definition              Value          Derivative Info.                !
 --------------------------------------------------------------------------------
 ! R1    R(1,2)                  1.089          estimate D2E/DX2                !
 ! R2    R(1,3)                  1.089          estimate D2E/DX2                !
 ! R3    R(1,4)                  1.44           estimate D2E/DX2                !
 ! R4    R(4,5)                  1.008          estimate D2E/DX2                !
 ! A1    A(2,1,3)              109.4712         estimate D2E/DX2                !
 ! A2    A(2,1,4)              141.0576         estimate D2E/DX2                !
 ! A3    A(3,1,4)              109.4712         estimate D2E/DX2                !
 ! A4    A(1,4,5)              109.4712         estimate D2E/DX2                !
 ! D1    D(2,1,3,4)            180.0            estimate D2E/DX2                !
 ! D2    D(2,1,4,5)              0.0            estimate D2E/DX2                !
 ! D3    D(3,1,4,5)            180.0            estimate D2E/DX2                !
 --------------------------------------------------------------------------------
 Trust Radius=3.00D-01 FncErr=1.00D-07 GrdErr=1.00D-06
 Number of steps in this run=     21 maximum allowed number of steps=    100.
 GradGradGradGradGradGradGradGradGradGradGradGradGradGradGradGradGradGrad

 Leave Link  103 at Wed Sep  2 15:35:43 2015, MaxMem=    33554432 cpu:         0.0
 (Enter /group/hpc-share/gaussian/2009D/g09/l202.exe)
                          Input orientation:                          
 ---------------------------------------------------------------------
 Center     Atomic      Atomic             Coordinates (Angstroms)
 Number     Number       Type             X           Y           Z
 ---------------------------------------------------------------------
      1          6           0        0.000000    0.000000    0.000000
      2          1           0        0.000000    0.000000    1.089000
      3          1           0        1.026719    0.000000   -0.363000
      4          7           0       -0.905097    0.000000   -1.120000
      5          1           0       -1.855448    0.000000   -0.784000
 ---------------------------------------------------------------------
                    Distance matrix (angstroms):
                    1          2          3          4          5
     1  C    0.000000
     2  H    1.089000   0.000000
     3  H    1.089000   1.778330   0.000000
     4  N    1.440000   2.387233   2.074840   0.000000
     5  H    2.014285   2.636440   2.912753   1.008000   0.000000
 Stoichiometry    CH3N
 Framework group  CS[SG(CH3N)]
 Deg. of freedom     7
 Full point group                 CS      NOp   2
 Largest Abelian subgroup         CS      NOp   2
 Largest concise Abelian subgroup C1      NOp   1
                         Standard orientation:                         
 ---------------------------------------------------------------------
 Center     Atomic      Atomic             Coordinates (Angstroms)
 Number     Number       Type             X           Y           Z
 ---------------------------------------------------------------------
      1          6           0        0.038007    0.665375    0.000000
      2          1           0       -0.646472    1.512375    0.000000
      3          1           0        1.064726    1.028375    0.000000
      4          7           0        0.038007   -0.774625    0.000000
      5          1           0       -0.912345   -1.110625    0.000000
 ---------------------------------------------------------------------
 Rotational constants (GHZ):    213.9694521     27.5716686     24.4243912
 Leave Link  202 at Wed Sep  2 15:35:43 2015, MaxMem=    33554432 cpu:         0.0
 (Enter /group/hpc-share/gaussian/2009D/g09/l301.exe)
 General basis read from cards:  (5D, 7F)
 Centers:       2      3      5
 S 3 1.00
     Exponent=  1.3010701000D+01 Coefficients=  1.9682158000D-02
     Exponent=  1.9622572000D+00 Coefficients=  1.3796524000D-01
     Exponent=  4.4453796000D-01 Coefficients=  4.7831935000D-01
 S 1 1.00
     Exponent=  1.2194962000D-01 Coefficients=  1.0000000000D+00
 ****
 Centers:       1
 S 5 1.00
     Exponent=  1.2384016938D+03 Coefficients=  5.4568832082D-03
     Exponent=  1.8629004992D+02 Coefficients=  4.0638409211D-02
     Exponent=  4.2251176346D+01 Coefficients=  1.8025593888D-01
     Exponent=  1.1676557932D+01 Coefficients=  4.6315121755D-01
     Exponent=  3.5930506482D+00 Coefficients=  4.4087173314D-01
 S 1 1.00
     Exponent=  4.0245147363D-01 Coefficients=  1.0000000000D+00
 S 1 1.00
     Exponent=  1.3090182668D-01 Coefficients=  1.0000000000D+00
 P 3 1.00
     Exponent=  9.4680970621D+00 Coefficients=  3.8387871728D-02
     Exponent=  2.0103545142D+00 Coefficients=  2.1117025112D-01
     Exponent=  5.4771004707D-01 Coefficients=  5.1328172114D-01
 P 1 1.00
     Exponent=  1.5268613795D-01 Coefficients=  1.0000000000D+00
 D 1 1.00
     Exponent=  8.0000000000D-01 Coefficients=  1.0000000000D+00
 ****
 Centers:       4
 S 5 1.00
     Exponent=  1.7128415853D+03 Coefficients= -5.3934125305D-03
     Exponent=  2.5764812677D+02 Coefficients= -4.0221581118D-02
     Exponent=  5.8458245853D+01 Coefficients= -1.7931144990D-01
     Exponent=  1.6198367905D+01 Coefficients= -4.6376317823D-01
     Exponent=  5.0052600809D+00 Coefficients= -4.4171422662D-01
 S 1 1.00
     Exponent=  5.8731856571D-01 Coefficients=  1.0000000000D+00
 S 1 1.00
     Exponent=  1.8764592253D-01 Coefficients=  1.0000000000D+00
 P 3 1.00
     Exponent=  1.3571470233D+01 Coefficients= -4.0072398852D-02
     Exponent=  2.9257372874D+00 Coefficients= -2.1807045028D-01
     Exponent=  7.9927750754D-01 Coefficients= -5.1294466049D-01
 P 1 1.00
     Exponent=  2.1954348034D-01 Coefficients=  1.0000000000D+00
 D 1 1.00
     Exponent=  1.0000000000D+00 Coefficients=  1.0000000000D+00
 ****
 Ernie: Thresh=  0.10000D-02 Tol=  0.10000D-05 Strict=F.
 There are    28 symmetry adapted cartesian basis functions of A'  symmetry.
 There are     8 symmetry adapted cartesian basis functions of A"  symmetry.
 There are    26 symmetry adapted basis functions of A'  symmetry.
 There are     8 symmetry adapted basis functions of A"  symmetry.
    34 basis functions,    62 primitive gaussians,    36 cartesian basis functions
     8 alpha electrons        8 beta electrons
       nuclear repulsion energy        30.5335679592 Hartrees.
 IExCor= 1009 DFT=T Ex+Corr=PBE1PBE ExCW=0 ScaHFX=  0.250000
 ScaDFX=  0.750000  0.750000  1.000000  1.000000 ScalE2=  1.000000  1.000000
 IRadAn=      0 IRanWt=     -1 IRanGd=            0 ICorTp=0 IEmpDi=  4
 NAtoms=    5 NActive=    5 NUniq=    5 SFac= 1.00D+00 NAtFMM=   60 NAOKFM=F Big=F
 Integral buffers will be    131072 words long.
 Raffenetti 2 integral format.
 Two-electron integral symmetry is turned on.
 Leave Link  301 at Wed Sep  2 15:35:43 2015, MaxMem=    33554432 cpu:         1.4
 (Enter /group/hpc-share/gaussian/2009D/g09/l302.exe)
 NPDir=0 NMtPBC=     1 NCelOv=     1 NCel=       1 NClECP=     1 NCelD=      1
         NCelK=      1 NCelE2=     1 NClLst=     1 CellRange=     0.0.
 One-electron integrals computed using PRISM.
 NBasis=    34 RedAO= T EigKep=  2.00D-02  NBF=    26     8
 NBsUse=    34 1.00D-06 EigRej= -1.00D+00 NBFU=    26     8
 Precomputing XC quadrature grid using
 IXCGrd= 4 IRadAn=           0 IRanWt=          -1 IRanGd=           0 AccXCQ= 0.00D+00.
 Generated NRdTot=       0 NPtTot=           0 NUsed=           0 NTot=          32
 NSgBfM=    36    36    36    36    36 MxSgAt=     5 MxSgA2=     5.
 Leave Link  302 at Wed Sep  2 15:35:44 2015, MaxMem=    33554432 cpu:         1.1
 (Enter /group/hpc-share/gaussian/2009D/g09/l303.exe)
 DipDrv:  MaxL=1.
 Leave Link  303 at Wed Sep  2 15:35:44 2015, MaxMem=    33554432 cpu:         0.2
 (Enter /group/hpc-share/gaussian/2009D/g09/l401.exe)
 ExpMin= 1.22D-01 ExpMax= 1.71D+03 ExpMxC= 2.58D+02 IAcc=1 IRadAn=         1 AccDes= 0.00D+00
 Harris functional with IExCor= 1009 and IRadAn=       1 diagonalized for initial guess.
 HarFok:  IExCor= 1009 AccDes= 0.00D+00 IRadAn=         1 IDoV= 1 UseB2=F ITyADJ=14
 ICtDFT=  3500011 ScaDFX=  1.000000  1.000000  1.000000  1.000000
 FoFCou: FMM=F IPFlag=           0 FMFlag=      100000 FMFlg1=           0
         NFxFlg=           0 DoJE=T BraDBF=F KetDBF=T FulRan=T
         wScrn=  0.000000 ICntrl=     500 IOpCl=  0 I1Cent=   200000004 NGrid=           0
         NMat0=    1 NMatS0=      1 NMatT0=    0 NMatD0=    1 NMtDS0=    0 NMtDT0=    0
 Petite list used in FoFCou.
 Harris En= -94.4097767885592    
 JPrj=0 DoOrth=F DoCkMO=F.
 Initial guess orbital symmetries:
       Occupied  (A') (A') (A') (A') (A') (A') (A") (A')
       Virtual   (A") (A') (A') (A') (A') (A') (A') (A") (A') (A')
                 (A') (A') (A") (A') (A') (A') (A") (A") (A') (A')
                 (A') (A") (A') (A") (A') (A')
 The electronic state of the initial guess is 1-A'.
 Leave Link  401 at Wed Sep  2 15:35:44 2015, MaxMem=    33554432 cpu:         1.1
 (Enter /group/hpc-share/gaussian/2009D/g09/l502.exe)
 Closed shell SCF:
 Using DIIS extrapolation, IDIIS=  1040.
 Integral symmetry usage will be decided dynamically.
 Keep R1 ints in memory in symmetry-blocked form, NReq=1062360.
 IVT=       23026 IEndB=       23026 NGot=    33554432 MDV=    33432961
 LenX=    33432961 LenY=    33431224
 Requested convergence on RMS density matrix=1.00D-08 within 128 cycles.
 Requested convergence on MAX density matrix=1.00D-06.
 Requested convergence on             energy=1.00D-06.
 No special actions if energy rises.
 FoFCou: FMM=F IPFlag=           0 FMFlag=           0 FMFlg1=           0
         NFxFlg=           0 DoJE=F BraDBF=F KetDBF=F FulRan=T
         wScrn=  0.000000 ICntrl=     600 IOpCl=  0 I1Cent=           0 NGrid=           0
         NMat0=    1 NMatS0=    595 NMatT0=    0 NMatD0=    1 NMtDS0=    0 NMtDT0=    0
 Petite list used in FoFCou.
 Integral accuracy reduced to 1.0D-05 until final iterations.

 Cycle   1  Pass 0  IDiag  1:
 E= -94.3623975119117    
 DIIS: error= 2.97D-02 at cycle   1 NSaved=   1.
 NSaved= 1 IEnMin= 1 EnMin= -94.3623975119117     IErMin= 1 ErrMin= 2.97D-02
 ErrMax= 2.97D-02  0.00D+00 EMaxC= 1.00D-01 BMatC= 2.72D-02 BMatP= 2.72D-02
 IDIUse=3 WtCom= 7.03D-01 WtEn= 2.97D-01
 Coeff-Com:  0.100D+01
 Coeff-En:   0.100D+01
 Coeff:      0.100D+01
 Gap=     0.225 Goal=   None    Shift=    0.000
 GapD=    0.225 DampG=1.000 DampE=0.500 DampFc=0.5000 IDamp=-1.
 Damping current iteration by 5.00D-01
 RMSDP=1.13D-02 MaxDP=1.02D-01              OVMax= 1.69D-01

 Cycle   2  Pass 0  IDiag  1:
 E= -94.3703237957930     Delta-E=       -0.007926283881 Rises=F Damp=T
 DIIS: error= 1.59D-02 at cycle   2 NSaved=   2.
 NSaved= 2 IEnMin= 2 EnMin= -94.3703237957930     IErMin= 2 ErrMin= 1.59D-02
 ErrMax= 1.59D-02  0.00D+00 EMaxC= 1.00D-01 BMatC= 5.53D-03 BMatP= 2.72D-02
 IDIUse=3 WtCom= 8.41D-01 WtEn= 1.59D-01
 Coeff-Com:  0.225D+00 0.775D+00
 Coeff-En:   0.333D+00 0.667D+00
 Coeff:      0.242D+00 0.758D+00
 Gap=     0.256 Goal=   None    Shift=    0.000
 RMSDP=3.29D-03 MaxDP=3.68D-02 DE=-7.93D-03 OVMax= 1.52D-01

 Cycle   3  Pass 0  IDiag  1:
 E= -94.3852962567498     Delta-E=       -0.014972460957 Rises=F Damp=F
 DIIS: error= 1.62D-02 at cycle   3 NSaved=   3.
 NSaved= 3 IEnMin= 3 EnMin= -94.3852962567498     IErMin= 2 ErrMin= 1.59D-02
 ErrMax= 1.62D-02  0.00D+00 EMaxC= 1.00D-01 BMatC= 5.62D-03 BMatP= 5.53D-03
 IDIUse=3 WtCom= 8.38D-01 WtEn= 1.62D-01
 Coeff-Com:  0.349D-01 0.494D+00 0.471D+00
 Coeff-En:   0.000D+00 0.000D+00 0.100D+01
 Coeff:      0.292D-01 0.414D+00 0.556D+00
 Gap=     0.243 Goal=   None    Shift=    0.000
 RMSDP=2.49D-03 MaxDP=3.08D-02 DE=-1.50D-02 OVMax= 6.30D-02

 Cycle   4  Pass 0  IDiag  1:
 E= -94.3897352089093     Delta-E=       -0.004438952159 Rises=F Damp=F
 DIIS: error= 8.43D-03 at cycle   4 NSaved=   4.
 NSaved= 4 IEnMin= 4 EnMin= -94.3897352089093     IErMin= 4 ErrMin= 8.43D-03
 ErrMax= 8.43D-03  0.00D+00 EMaxC= 1.00D-01 BMatC= 1.56D-03 BMatP= 5.53D-03
 IDIUse=3 WtCom= 9.16D-01 WtEn= 8.43D-02
 Coeff-Com:  0.263D-01-0.205D-02 0.325D+00 0.651D+00
 Coeff-En:   0.000D+00 0.000D+00 0.259D+00 0.741D+00
 Coeff:      0.241D-01-0.188D-02 0.319D+00 0.659D+00
 Gap=     0.250 Goal=   None    Shift=    0.000
 RMSDP=8.66D-04 MaxDP=1.03D-02 DE=-4.44D-03 OVMax= 2.11D-02

 Cycle   5  Pass 0  IDiag  1:
 E= -94.3912858152579     Delta-E=       -0.001550606349 Rises=F Damp=F
 DIIS: error= 2.99D-04 at cycle   5 NSaved=   5.
 NSaved= 5 IEnMin= 5 EnMin= -94.3912858152579     IErMin= 5 ErrMin= 2.99D-04
 ErrMax= 2.99D-04  0.00D+00 EMaxC= 1.00D-01 BMatC= 2.08D-06 BMatP= 1.56D-03
 IDIUse=3 WtCom= 9.97D-01 WtEn= 2.99D-03
 Coeff-Com:  0.344D-02-0.114D-01 0.538D-01 0.145D+00 0.809D+00
 Coeff-En:   0.000D+00 0.000D+00 0.000D+00 0.000D+00 0.100D+01
 Coeff:      0.343D-02-0.114D-01 0.537D-01 0.145D+00 0.810D+00
 Gap=     0.250 Goal=   None    Shift=    0.000
 RMSDP=3.59D-05 MaxDP=3.37D-04 DE=-1.55D-03 OVMax= 6.49D-04

 Cycle   6  Pass 0  IDiag  1:
 E= -94.3912876626941     Delta-E=       -0.000001847436 Rises=F Damp=F
 DIIS: error= 3.31D-05 at cycle   6 NSaved=   6.
 NSaved= 6 IEnMin= 6 EnMin= -94.3912876626941     IErMin= 6 ErrMin= 3.31D-05
 ErrMax= 3.31D-05  0.00D+00 EMaxC= 1.00D-01 BMatC= 3.49D-08 BMatP= 2.08D-06
 IDIUse=1 WtCom= 1.00D+00 WtEn= 0.00D+00
 Coeff-Com:  0.210D-03-0.641D-03 0.409D-03-0.242D-02-0.233D-02 0.100D+01
 Coeff:      0.210D-03-0.641D-03 0.409D-03-0.242D-02-0.233D-02 0.100D+01
 Gap=     0.250 Goal=   None    Shift=    0.000
 RMSDP=4.65D-06 MaxDP=3.23D-05 DE=-1.85D-06 OVMax= 5.42D-05

 Initial convergence to 1.0D-05 achieved.  Increase integral accuracy.
 Cycle   7  Pass 1  IDiag  1:
 E= -94.3912705544751     Delta-E=        0.000017108219 Rises=F Damp=F
 DIIS: error= 9.98D-06 at cycle   1 NSaved=   1.
 NSaved= 1 IEnMin= 1 EnMin= -94.3912705544751     IErMin= 1 ErrMin= 9.98D-06
 ErrMax= 9.98D-06  0.00D+00 EMaxC= 1.00D-01 BMatC= 2.62D-09 BMatP= 2.62D-09
 IDIUse=1 WtCom= 1.00D+00 WtEn= 0.00D+00
 Coeff-Com:  0.100D+01
 Coeff:      0.100D+01
 Gap=     0.250 Goal=   None    Shift=    0.000
 RMSDP=4.65D-06 MaxDP=3.23D-05 DE= 1.71D-05 OVMax= 9.49D-05

 Cycle   8  Pass 1  IDiag  1:
 E= -94.3912705467252     Delta-E=        0.000000007750 Rises=F Damp=F
 DIIS: error= 2.56D-05 at cycle   2 NSaved=   2.
 NSaved= 2 IEnMin= 1 EnMin= -94.3912705544751     IErMin= 1 ErrMin= 9.98D-06
 ErrMax= 2.56D-05  0.00D+00 EMaxC= 1.00D-01 BMatC= 1.20D-08 BMatP= 2.62D-09
 IDIUse=1 WtCom= 1.00D+00 WtEn= 0.00D+00
 Coeff-Com:  0.702D+00 0.298D+00
 Coeff:      0.702D+00 0.298D+00
 Gap=     0.250 Goal=   None    Shift=    0.000
 RMSDP=2.51D-06 MaxDP=3.06D-05 DE= 7.75D-09 OVMax= 6.35D-05

 Cycle   9  Pass 1  IDiag  1:
 E= -94.3912705586098     Delta-E=       -0.000000011885 Rises=F Damp=F
 DIIS: error= 1.25D-06 at cycle   3 NSaved=   3.
 NSaved= 3 IEnMin= 3 EnMin= -94.3912705586098     IErMin= 3 ErrMin= 1.25D-06
 ErrMax= 1.25D-06  0.00D+00 EMaxC= 1.00D-01 BMatC= 8.95D-11 BMatP= 2.62D-09
 IDIUse=1 WtCom= 1.00D+00 WtEn= 0.00D+00
 Coeff-Com:  0.885D-01 0.810D-01 0.831D+00
 Coeff:      0.885D-01 0.810D-01 0.831D+00
 Gap=     0.250 Goal=   None    Shift=    0.000
 RMSDP=3.09D-07 MaxDP=3.92D-06 DE=-1.19D-08 OVMax= 4.72D-06

 Cycle  10  Pass 1  IDiag  1:
 E= -94.3912705586933     Delta-E=       -0.000000000084 Rises=F Damp=F
 DIIS: error= 6.14D-07 at cycle   4 NSaved=   4.
 NSaved= 4 IEnMin= 4 EnMin= -94.3912705586933     IErMin= 4 ErrMin= 6.14D-07
 ErrMax= 6.14D-07  0.00D+00 EMaxC= 1.00D-01 BMatC= 8.30D-12 BMatP= 8.95D-11
 IDIUse=1 WtCom= 1.00D+00 WtEn= 0.00D+00
 Coeff-Com: -0.198D-01 0.763D-02 0.242D+00 0.770D+00
 Coeff:     -0.198D-01 0.763D-02 0.242D+00 0.770D+00
 Gap=     0.250 Goal=   None    Shift=    0.000
 RMSDP=1.12D-07 MaxDP=1.32D-06 DE=-8.35D-11 OVMax= 1.36D-06

 Cycle  11  Pass 1  IDiag  1:
 E= -94.3912705587013     Delta-E=       -0.000000000008 Rises=F Damp=F
 DIIS: error= 1.62D-07 at cycle   5 NSaved=   5.
 NSaved= 5 IEnMin= 5 EnMin= -94.3912705587013     IErMin= 5 ErrMin= 1.62D-07
 ErrMax= 1.62D-07  0.00D+00 EMaxC= 1.00D-01 BMatC= 1.23D-12 BMatP= 8.30D-12
 IDIUse=1 WtCom= 1.00D+00 WtEn= 0.00D+00
 Coeff-Com: -0.115D-01 0.357D-02 0.620D-01 0.321D+00 0.625D+00
 Coeff:     -0.115D-01 0.357D-02 0.620D-01 0.321D+00 0.625D+00
 Gap=     0.250 Goal=   None    Shift=    0.000
 RMSDP=3.18D-08 MaxDP=2.88D-07 DE=-7.96D-12 OVMax= 4.00D-07

 Cycle  12  Pass 1  IDiag  1:
 E= -94.3912705587026     Delta-E=       -0.000000000001 Rises=F Damp=F
 DIIS: error= 3.93D-08 at cycle   6 NSaved=   6.
 NSaved= 6 IEnMin= 6 EnMin= -94.3912705587026     IErMin= 6 ErrMin= 3.93D-08
 ErrMax= 3.93D-08  0.00D+00 EMaxC= 1.00D-01 BMatC= 3.61D-14 BMatP= 1.23D-12
 IDIUse=1 WtCom= 1.00D+00 WtEn= 0.00D+00
 Coeff-Com: -0.417D-03 0.156D-02-0.305D-02 0.464D-02 0.449D-01 0.952D+00
 Coeff:     -0.417D-03 0.156D-02-0.305D-02 0.464D-02 0.449D-01 0.952D+00
 Gap=     0.250 Goal=   None    Shift=    0.000
 RMSDP=4.95D-09 MaxDP=3.81D-08 DE=-1.36D-12 OVMax= 7.08D-08

 SCF Done:  E(RPBE1PBE) =  -94.3912705587     A.U. after   12 cycles
            NFock= 12  Conv=0.49D-08     -V/T= 2.0112
 KE= 9.334226701851D+01 PE=-2.805034419822D+02 EE= 6.223633644588D+01
 Leave Link  502 at Wed Sep  2 15:35:44 2015, MaxMem=    33554432 cpu:         2.3
 (Enter /group/hpc-share/gaussian/2009D/g09/l601.exe)
 Copying SCF densities to generalized density rwf, IOpCl= 0 IROHF=0.

 **********************************************************************

            Population analysis using the SCF density.

 **********************************************************************

 Orbital symmetries:
       Occupied  (A') (A') (A') (A') (A') (A') (A") (A')
       Virtual   (A") (A') (A') (A') (A') (A') (A') (A") (A') (A')
                 (A') (A') (A") (A') (A') (A') (A") (A") (A') (A')
                 (A') (A") (A') (A") (A') (A')
 The electronic state is 1-A'.
 Alpha  occ. eigenvalues --  -14.40694 -10.29733  -0.87252  -0.65828  -0.50318
 Alpha  occ. eigenvalues --   -0.41990  -0.31444  -0.29856
 Alpha virt. eigenvalues --   -0.04829   0.08789   0.10177   0.13617   0.24311
 Alpha virt. eigenvalues --    0.48262   0.49171   0.51175   0.52869   0.66520
 Alpha virt. eigenvalues --    0.69362   0.71122   0.80785   0.82532   0.99360
 Alpha virt. eigenvalues --    1.01628   1.55207   1.63253   1.83478   1.94613
 Alpha virt. eigenvalues --    2.06348   2.15975   2.45656   2.51830   2.64054
 Alpha virt. eigenvalues --    2.94106
          Condensed to atoms (all electrons):
               1          2          3          4          5
     1  C    4.949378   0.342695   0.385984   0.550179  -0.045654
     2  H    0.342695   0.590049  -0.062900  -0.012215  -0.013298
     3  H    0.385984  -0.062900   0.559872  -0.043246   0.009958
     4  N    0.550179  -0.012215  -0.043246   6.578328   0.273471
     5  H   -0.045654  -0.013298   0.009958   0.273471   0.552424
 Mulliken charges:
               1
     1  C   -0.182583
     2  H    0.155669
     3  H    0.150333
     4  N   -0.346518
     5  H    0.223099
 Sum of Mulliken charges =   0.00000
 Mulliken charges with hydrogens summed into heavy atoms:
               1
     1  C    0.123419
     4  N   -0.123419
 Electronic spatial extent (au):  <R**2>=             77.3537
 Charge=              0.0000 electrons
 Dipole moment (field-independent basis, Debye):
    X=             -1.4127    Y=              1.6491    Z=              0.0000  Tot=              2.1715
 Quadrupole moment (field-independent basis, Debye-Ang):
   XX=            -11.9330   YY=            -11.9365   ZZ=            -13.7085
   XY=              1.8686   XZ=              0.0000   YZ=              0.0000
 Traceless Quadrupole moment (field-independent basis, Debye-Ang):
   XX=              0.5930   YY=              0.5895   ZZ=             -1.1825
   XY=              1.8686   XZ=              0.0000   YZ=              0.0000
 Octapole moment (field-independent basis, Debye-Ang**2):
  XXX=             -1.1507  YYY=              1.8917  ZZZ=              0.0000  XYY=             -2.9181
  XXY=             -0.1170  XXZ=              0.0000  XZZ=             -0.3840  YZZ=             -0.3589
  YYZ=              0.0000  XYZ=              0.0000
 Hexadecapole moment (field-independent basis, Debye-Ang**3):
 XXXX=            -20.1526 YYYY=            -61.9020 ZZZZ=            -13.2120 XXXY=              0.3373
 XXXZ=              0.0000 YYYX=             -0.0833 YYYZ=              0.0000 ZZZX=              0.0000
 ZZZY=              0.0000 XXYY=            -12.8015 XXZZ=             -5.9847 YYZZ=            -13.2422
 XXYZ=              0.0000 YYXZ=              0.0000 ZZXY=             -0.3960
 N-N= 3.053356795915D+01 E-N=-2.805034425894D+02  KE= 9.334226701851D+01
 Symmetry A'   KE= 9.072895514429D+01
 Symmetry A"   KE= 2.613311874222D+00
 No NMR shielding tensors so no spin-rotation constants.
 Leave Link  601 at Wed Sep  2 15:35:44 2015, MaxMem=    33554432 cpu:         0.9
 (Enter /group/hpc-share/gaussian/2009D/g09/l701.exe)
 Compute integral first derivatives.
 ... and contract with generalized density number  0.
 Leave Link  701 at Wed Sep  2 15:35:45 2015, MaxMem=    33554432 cpu:         1.1
 (Enter /group/hpc-share/gaussian/2009D/g09/l702.exe)
 L702 exits ... SP integral derivatives will be done elsewhere.
 Leave Link  702 at Wed Sep  2 15:35:45 2015, MaxMem=    33554432 cpu:         0.1
 (Enter /group/hpc-share/gaussian/2009D/g09/l703.exe)
 Compute integral first derivatives, UseDBF=F ICtDFT=           0.
 Integral derivatives from FoFJK, PRISM(SPDF).
 Calling FoFJK, ICntrl=      2127 FMM=F ISym2X=1 I1Cent= 0 IOpClX= 0 NMat=1 NMatS=1 NMatT=0.
 FoFJK:  IHMeth= 1 ICntrl=    2127 DoSepK=F KAlg= 0 I1Cent=   0 FoldK=F
 IRaf=         0 NMat=   1 IRICut=       1 DoRegI=T DoRafI=F ISym2E= 1.
 FoFCou: FMM=F IPFlag=           0 FMFlag=      100000 FMFlg1=         800
         NFxFlg=           0 DoJE=F BraDBF=F KetDBF=F FulRan=T
         wScrn=  0.000000 ICntrl=    2127 IOpCl=  0 I1Cent=           0 NGrid=           0
         NMat0=    1 NMatS0=      1 NMatT0=    0 NMatD0=    1 NMtDS0=    0 NMtDT0=    0
 Petite list used in FoFCou.
 Leave Link  703 at Wed Sep  2 15:35:45 2015, MaxMem=    33554432 cpu:         1.7
 (Enter /group/hpc-share/gaussian/2009D/g09/l716.exe)
 Dipole        =-5.55808060D-01 6.48801292D-01 1.25034902D-32
 ***** Axes restored to original set *****
 -------------------------------------------------------------------
 Center     Atomic                   Forces (Hartrees/Bohr)
 Number     Number              X              Y              Z
 -------------------------------------------------------------------
      1        6          -0.065224799    0.000000000   -0.136236947
      2        1          -0.026456539    0.000000000    0.010259671
      3        1           0.008300553    0.000000000   -0.003450048
      4        7           0.102012868    0.000000000    0.118053455
      5        1          -0.018632083    0.000000000    0.011373870
 -------------------------------------------------------------------
 Cartesian Forces:  Max     0.136236947 RMS     0.056874455
 Leave Link  716 at Wed Sep  2 15:35:45 2015, MaxMem=    33554432 cpu:         0.1
 (Enter /group/hpc-share/gaussian/2009D/g09/l103.exe)

 GradGradGradGradGradGradGradGradGradGradGradGradGradGradGradGradGradGrad
 Berny optimization.
 FormGI is forming the generalized inverse of G from B-inverse, IUseBI=4.
 Internal  Forces:  Max     0.153071528 RMS     0.048699449
 Search for a local minimum.
 Step number   1 out of a maximum of   21
 All quantities printed in internal units (Hartrees-Bohrs-Radians)
 RMS Force = .48699D-01 SwitMx=.10000D-02 MixMth= 1
 Mixed Optimization -- RFO/linear search
 Second derivative matrix not updated -- first step.
 The second derivative matrix:
                          R1        R2        R3        R4        A1
           R1           0.34928
           R2           0.00000   0.34928
           R3           0.00000   0.00000   0.39585
           R4           0.00000   0.00000   0.00000   0.46309
           A1           0.00000   0.00000   0.00000   0.00000   0.16000
           A2           0.00000   0.00000   0.00000   0.00000   0.00000
           A3           0.00000   0.00000   0.00000   0.00000   0.00000
           A4           0.00000   0.00000   0.00000   0.00000   0.00000
           D1           0.00000   0.00000   0.00000   0.00000   0.00000
           D2           0.00000   0.00000   0.00000   0.00000   0.00000
           D3           0.00000   0.00000   0.00000   0.00000   0.00000
                          A2        A3        A4        D1        D2
           A2           0.16000
           A3           0.00000   0.16000
           A4           0.00000   0.00000   0.16000
           D1           0.00000   0.00000   0.00000   0.00248
           D2           0.00000   0.00000   0.00000   0.00000   0.01163
           D3           0.00000   0.00000   0.00000   0.00000   0.00000
                          D3
           D3           0.01163
 ITU=  0
     Eigenvalues ---    0.00732   0.01163   0.16000   0.16000   0.16000
     Eigenvalues ---    0.34928   0.34928   0.39585   0.46309
 RFO step:  Lambda=-6.16308895D-02 EMin= 7.32257532D-03
 Linear search not attempted -- first point.
 Maximum step size (   0.300) exceeded in Quadratic search.
    -- Step size scaled by   0.760
 Iteration  1 RMS(Cart)=  0.10457415 RMS(Int)=  0.01717850
 Iteration  2 RMS(Cart)=  0.01995200 RMS(Int)=  0.00003706
 Iteration  3 RMS(Cart)=  0.00003682 RMS(Int)=  0.00000000
 Iteration  4 RMS(Cart)=  0.00000000 RMS(Int)=  0.00000000
 ITry= 1 IFail=0 DXMaxC= 2.39D-01 DCOld= 1.00D+10 DXMaxT= 3.00D-01 DXLimC= 3.00D+00 Rises=F
 ClnCor:  largest displacement from symmetrization is 5.20D-10 for atom     1.
 Variable       Old X    -DE/DX   Delta X   Delta X   Delta X     New X
                                 (Linear)    (Quad)   (Total)
    R1        2.05791   0.01026   0.00000   0.01898   0.01898   2.07689
    R2        2.05791   0.00897   0.00000   0.01660   0.01660   2.07452
    R3        2.72121  -0.15307   0.00000  -0.25436  -0.25436   2.46685
    R4        1.90484   0.02135   0.00000   0.03094   0.03094   1.93578
    A1        1.91063   0.01848   0.00000   0.06339   0.06339   1.97403
    A2        2.46192  -0.03597   0.00000  -0.12339  -0.12339   2.33853
    A3        1.91063   0.01749   0.00000   0.05999   0.05999   1.97063
    A4        1.91063  -0.00859   0.00000  -0.02946  -0.02946   1.88117
    D1        3.14159   0.00000   0.00000   0.00000   0.00000   3.14159
    D2        0.00000   0.00000   0.00000   0.00000   0.00000   0.00000
    D3        3.14159   0.00000   0.00000   0.00000   0.00000   3.14159
         Item               Value     Threshold  Converged?
 Maximum Force            0.153072     0.000450     NO 
 RMS     Force            0.048699     0.000300     NO 
 Maximum Displacement     0.239172     0.001800     NO 
 RMS     Displacement     0.121161     0.001200     NO 
 Predicted change in Energy=-3.181677D-02
 Lowest energy point so far.  Saving SCF results.
 GradGradGradGradGradGradGradGradGradGradGradGradGradGradGradGradGradGrad

 Leave Link  103 at Wed Sep  2 15:35:45 2015, MaxMem=    33554432 cpu:         0.1
 (Enter /group/hpc-share/gaussian/2009D/g09/l202.exe)
                          Input orientation:                          
 ---------------------------------------------------------------------
 Center     Atomic      Atomic             Coordinates (Angstroms)
 Number     Number       Type             X           Y           Z
 ---------------------------------------------------------------------
      1          6           0       -0.008724    0.000000   -0.066294
      2          1           0       -0.126564    0.000000    1.026415
      3          1           0        1.041384    0.000000   -0.386307
      4          7           0       -0.845317    0.000000   -1.068383
      5          1           0       -1.794605    0.000000   -0.683431
 ---------------------------------------------------------------------
                    Distance matrix (angstroms):
                    1          2          3          4          5
     1  C    0.000000
     2  H    1.099045   0.000000
     3  H    1.097786   1.832999   0.000000
     4  N    1.305400   2.214675   2.006207   0.000000
     5  H    1.889505   2.388709   2.851511   1.024371   0.000000
 Stoichiometry    CH3N
 Framework group  CS[SG(CH3N)]
 Deg. of freedom     7
 Full point group                 CS      NOp   2
 RotChk:  IX=0 Diff= 2.26D-02
 Largest Abelian subgroup         CS      NOp   2
 Largest concise Abelian subgroup C1      NOp   1
                         Standard orientation:                         
 ---------------------------------------------------------------------
 Center     Atomic      Atomic             Coordinates (Angstroms)
 Number     Number       Type             X           Y           Z
 ---------------------------------------------------------------------
      1          6           0        0.047186    0.597840    0.000000
      2          1           0       -0.743560    1.361137    0.000000
      3          1           0        1.058386    1.025166    0.000000
      4          7           0        0.047186   -0.707560    0.000000
      5          1           0       -0.928239   -1.020423    0.000000
 ---------------------------------------------------------------------
 Rotational constants (GHZ):    199.6126727     33.0753161     28.3738421
 Leave Link  202 at Wed Sep  2 15:35:45 2015, MaxMem=    33554432 cpu:         0.1
 (Enter /group/hpc-share/gaussian/2009D/g09/l301.exe)
 Basis read from rwf:  (5D, 7F)
 No pseudopotential information found on rwf file.
 There are    28 symmetry adapted cartesian basis functions of A'  symmetry.
 There are     8 symmetry adapted cartesian basis functions of A"  symmetry.
 There are    26 symmetry adapted basis functions of A'  symmetry.
 There are     8 symmetry adapted basis functions of A"  symmetry.
    34 basis functions,    62 primitive gaussians,    36 cartesian basis functions
     8 alpha electrons        8 beta electrons
       nuclear repulsion energy        32.3182022363 Hartrees.
 IExCor= 1009 DFT=T Ex+Corr=PBE1PBE ExCW=0 ScaHFX=  0.250000
 ScaDFX=  0.750000  0.750000  1.000000  1.000000 ScalE2=  1.000000  1.000000
 IRadAn=      0 IRanWt=     -1 IRanGd=            0 ICorTp=0 IEmpDi=  4
 NAtoms=    5 NActive=    5 NUniq=    5 SFac= 1.00D+00 NAtFMM=   60 NAOKFM=F Big=F
 Integral buffers will be    131072 words long.
 Raffenetti 2 integral format.
 Two-electron integral symmetry is turned on.
 No density basis found on file   724.
 Leave Link  301 at Wed Sep  2 15:35:45 2015, MaxMem=    33554432 cpu:         0.4
 (Enter /group/hpc-share/gaussian/2009D/g09/l302.exe)
 NPDir=0 NMtPBC=     1 NCelOv=     1 NCel=       1 NClECP=     1 NCelD=      1
         NCelK=      1 NCelE2=     1 NClLst=     1 CellRange=     0.0.
 One-electron integrals computed using PRISM.
 NBasis=    34 RedAO= T EigKep=  1.51D-02  NBF=    26     8
 NBsUse=    34 1.00D-06 EigRej= -1.00D+00 NBFU=    26     8
 Precomputing XC quadrature grid using
 IXCGrd= 4 IRadAn=           0 IRanWt=          -1 IRanGd=           0 AccXCQ= 0.00D+00.
 Generated NRdTot=       0 NPtTot=           0 NUsed=           0 NTot=          32
 NSgBfM=    36    36    36    36    36 MxSgAt=     5 MxSgA2=     5.
 Leave Link  302 at Wed Sep  2 15:35:46 2015, MaxMem=    33554432 cpu:         1.5
 (Enter /group/hpc-share/gaussian/2009D/g09/l303.exe)
 DipDrv:  MaxL=1.
 Leave Link  303 at Wed Sep  2 15:35:46 2015, MaxMem=    33554432 cpu:         0.1
 (Enter /group/hpc-share/gaussian/2009D/g09/l401.exe)
 Initial guess from the checkpoint file:  "methanimine.chk"
 B after Tr=     0.000000    0.000000    0.000000
         Rot=    0.999980    0.000000    0.000000   -0.006307 Ang=  -0.72 deg.
 Guess basis will be translated and rotated to current coordinates.
 JPrj=2 DoOrth=T DoCkMO=T.
 Initial guess orbital symmetries:
       Occupied  (A') (A') (A') (A') (A') (A') (A") (A')
       Virtual   (A') (A') (A') (A') (A') (A') (A') (A') (A') (A')
                 (A') (A') (A') (A') (A') (A') (A') (A') (A') (A")
                 (A") (A") (A") (A") (A") (A")
 The electronic state of the initial guess is 1-A'.
 Generating alternative initial guess.
 ExpMin= 1.22D-01 ExpMax= 1.71D+03 ExpMxC= 2.58D+02 IAcc=1 IRadAn=         1 AccDes= 0.00D+00
 Harris functional with IExCor= 1009 and IRadAn=       1 diagonalized for initial guess.
 HarFok:  IExCor= 1009 AccDes= 0.00D+00 IRadAn=         1 IDoV= 1 UseB2=F ITyADJ=14
 ICtDFT=  3500011 ScaDFX=  1.000000  1.000000  1.000000  1.000000
 FoFCou: FMM=F IPFlag=           0 FMFlag=      100000 FMFlg1=           0
         NFxFlg=           0 DoJE=T BraDBF=F KetDBF=T FulRan=T
         wScrn=  0.000000 ICntrl=     500 IOpCl=  0 I1Cent=   200000004 NGrid=           0
         NMat0=    1 NMatS0=      1 NMatT0=    0 NMatD0=    1 NMtDS0=    0 NMtDT0=    0
 Petite list used in FoFCou.
 Harris En= -94.4467587888095    
 Leave Link  401 at Wed Sep  2 15:35:46 2015, MaxMem=    33554432 cpu:         1.4
 (Enter /group/hpc-share/gaussian/2009D/g09/l502.exe)
 Closed shell SCF:
 Using DIIS extrapolation, IDIIS=  1040.
 Integral symmetry usage will be decided dynamically.
 Keep R1 ints in memory in symmetry-blocked form, NReq=1062360.
 IVT=       23026 IEndB=       23026 NGot=    33554432 MDV=    33432961
 LenX=    33432961 LenY=    33431224
 Requested convergence on RMS density matrix=1.00D-08 within 128 cycles.
 Requested convergence on MAX density matrix=1.00D-06.
 Requested convergence on             energy=1.00D-06.
 No special actions if energy rises.
 FoFCou: FMM=F IPFlag=           0 FMFlag=           0 FMFlg1=           0
         NFxFlg=           0 DoJE=F BraDBF=F KetDBF=F FulRan=T
         wScrn=  0.000000 ICntrl=     600 IOpCl=  0 I1Cent=           0 NGrid=           0
         NMat0=    1 NMatS0=    595 NMatT0=    0 NMatD0=    1 NMtDS0=    0 NMtDT0=    0
 Petite list used in FoFCou.
 Integral accuracy reduced to 1.0D-05 until final iterations.

 Cycle   1  Pass 0  IDiag  1:
 E= -94.4178749183953    
 DIIS: error= 9.93D-03 at cycle   1 NSaved=   1.
 NSaved= 1 IEnMin= 1 EnMin= -94.4178749183953     IErMin= 1 ErrMin= 9.93D-03
 ErrMax= 9.93D-03  0.00D+00 EMaxC= 1.00D-01 BMatC= 5.44D-03 BMatP= 5.44D-03
 IDIUse=3 WtCom= 9.01D-01 WtEn= 9.93D-02
 Coeff-Com:  0.100D+01
 Coeff-En:   0.100D+01
 Coeff:      0.100D+01
 Gap=     0.546 Goal=   None    Shift=    0.000
 GapD=    0.546 DampG=2.000 DampE=1.000 DampFc=2.0000 IDamp=-1.
 RMSDP=3.48D-03 MaxDP=2.35D-02              OVMax= 2.74D-02

 Cycle   2  Pass 0  IDiag  1:
 E= -94.4246805769446     Delta-E=       -0.006805658549 Rises=F Damp=F
 DIIS: error= 3.64D-03 at cycle   2 NSaved=   2.
 NSaved= 2 IEnMin= 2 EnMin= -94.4246805769446     IErMin= 2 ErrMin= 3.64D-03
 ErrMax= 3.64D-03  0.00D+00 EMaxC= 1.00D-01 BMatC= 7.26D-04 BMatP= 5.44D-03
 IDIUse=3 WtCom= 9.64D-01 WtEn= 3.64D-02
 Coeff-Com:  0.187D+00 0.813D+00
 Coeff-En:   0.000D+00 0.100D+01
 Coeff:      0.181D+00 0.819D+00
 Gap=     0.273 Goal=   None    Shift=    0.000
 RMSDP=1.18D-03 MaxDP=1.16D-02 DE=-6.81D-03 OVMax= 1.26D-02

 Cycle   3  Pass 0  IDiag  1:
 E= -94.4250297058711     Delta-E=       -0.000349128926 Rises=F Damp=F
 DIIS: error= 2.67D-03 at cycle   3 NSaved=   3.
 NSaved= 3 IEnMin= 3 EnMin= -94.4250297058711     IErMin= 3 ErrMin= 2.67D-03
 ErrMax= 2.67D-03  0.00D+00 EMaxC= 1.00D-01 BMatC= 3.71D-04 BMatP= 7.26D-04
 IDIUse=3 WtCom= 9.73D-01 WtEn= 2.67D-02
 Coeff-Com:  0.175D-02 0.411D+00 0.588D+00
 Coeff-En:   0.000D+00 0.319D+00 0.681D+00
 Coeff:      0.171D-02 0.408D+00 0.590D+00
 Gap=     0.275 Goal=   None    Shift=    0.000
 RMSDP=6.50D-04 MaxDP=6.47D-03 DE=-3.49D-04 OVMax= 1.06D-02

 Cycle   4  Pass 0  IDiag  1:
 E= -94.4253117755681     Delta-E=       -0.000282069697 Rises=F Damp=F
 DIIS: error= 2.16D-03 at cycle   4 NSaved=   4.
 NSaved= 4 IEnMin= 4 EnMin= -94.4253117755681     IErMin= 4 ErrMin= 2.16D-03
 ErrMax= 2.16D-03  0.00D+00 EMaxC= 1.00D-01 BMatC= 7.76D-05 BMatP= 3.71D-04
 IDIUse=3 WtCom= 9.78D-01 WtEn= 2.16D-02
 Coeff-Com: -0.142D-01 0.195D+00 0.385D+00 0.435D+00
 Coeff-En:   0.000D+00 0.000D+00 0.128D+00 0.872D+00
 Coeff:     -0.139D-01 0.191D+00 0.379D+00 0.444D+00
 Gap=     0.273 Goal=   None    Shift=    0.000
 RMSDP=2.16D-04 MaxDP=2.53D-03 DE=-2.82D-04 OVMax= 5.13D-03

 Cycle   5  Pass 0  IDiag  1:
 E= -94.4253828325511     Delta-E=       -0.000071056983 Rises=F Damp=F
 DIIS: error= 2.89D-04 at cycle   5 NSaved=   5.
 NSaved= 5 IEnMin= 5 EnMin= -94.4253828325511     IErMin= 5 ErrMin= 2.89D-04
 ErrMax= 2.89D-04  0.00D+00 EMaxC= 1.00D-01 BMatC= 2.37D-06 BMatP= 7.76D-05
 IDIUse=3 WtCom= 9.97D-01 WtEn= 2.89D-03
 Coeff-Com: -0.501D-02 0.230D-01 0.783D-01 0.192D+00 0.712D+00
 Coeff-En:   0.000D+00 0.000D+00 0.000D+00 0.000D+00 0.100D+01
 Coeff:     -0.500D-02 0.229D-01 0.781D-01 0.191D+00 0.713D+00
 Gap=     0.273 Goal=   None    Shift=    0.000
 RMSDP=4.07D-05 MaxDP=4.90D-04 DE=-7.11D-05 OVMax= 6.36D-04

 Cycle   6  Pass 0  IDiag  1:
 E= -94.4253852228572     Delta-E=       -0.000002390306 Rises=F Damp=F
 DIIS: error= 1.00D-05 at cycle   6 NSaved=   6.
 NSaved= 6 IEnMin= 6 EnMin= -94.4253852228572     IErMin= 6 ErrMin= 1.00D-05
 ErrMax= 1.00D-05  0.00D+00 EMaxC= 1.00D-01 BMatC= 5.33D-09 BMatP= 2.37D-06
 IDIUse=1 WtCom= 1.00D+00 WtEn= 0.00D+00
 Coeff-Com:  0.602D-04-0.391D-02-0.465D-02 0.581D-02 0.585D-01 0.944D+00
 Coeff:      0.602D-04-0.391D-02-0.465D-02 0.581D-02 0.585D-01 0.944D+00
 Gap=     0.273 Goal=   None    Shift=    0.000
 RMSDP=4.02D-06 MaxDP=4.31D-05 DE=-2.39D-06 OVMax= 3.15D-05

 Initial convergence to 1.0D-05 achieved.  Increase integral accuracy.
 Cycle   7  Pass 1  IDiag  1:
 E= -94.4253756135637     Delta-E=        0.000009609294 Rises=F Damp=F
 DIIS: error= 6.81D-06 at cycle   1 NSaved=   1.
 NSaved= 1 IEnMin= 1 EnMin= -94.4253756135637     IErMin= 1 ErrMin= 6.81D-06
 ErrMax= 6.81D-06  0.00D+00 EMaxC= 1.00D-01 BMatC= 8.08D-10 BMatP= 8.08D-10
 IDIUse=1 WtCom= 1.00D+00 WtEn= 0.00D+00
 Coeff-Com:  0.100D+01
 Coeff:      0.100D+01
 Gap=     0.273 Goal=   None    Shift=    0.000
 RMSDP=4.02D-06 MaxDP=4.31D-05 DE= 9.61D-06 OVMax= 4.49D-05

 Cycle   8  Pass 1  IDiag  1:
 E= -94.4253756140761     Delta-E=       -0.000000000512 Rises=F Damp=F
 DIIS: error= 8.60D-06 at cycle   2 NSaved=   2.
 NSaved= 2 IEnMin= 2 EnMin= -94.4253756140761     IErMin= 1 ErrMin= 6.81D-06
 ErrMax= 8.60D-06  0.00D+00 EMaxC= 1.00D-01 BMatC= 1.36D-09 BMatP= 8.08D-10
 IDIUse=1 WtCom= 1.00D+00 WtEn= 0.00D+00
 Coeff-Com:  0.592D+00 0.408D+00
 Coeff:      0.592D+00 0.408D+00
 Gap=     0.273 Goal=   None    Shift=    0.000
 RMSDP=1.02D-06 MaxDP=1.16D-05 DE=-5.12D-10 OVMax= 2.28D-05

 Cycle   9  Pass 1  IDiag  1:
 E= -94.4253756152752     Delta-E=       -0.000000001199 Rises=F Damp=F
 DIIS: error= 2.05D-06 at cycle   3 NSaved=   3.
 NSaved= 3 IEnMin= 3 EnMin= -94.4253756152752     IErMin= 3 ErrMin= 2.05D-06
 ErrMax= 2.05D-06  0.00D+00 EMaxC= 1.00D-01 BMatC= 8.92D-11 BMatP= 8.08D-10
 IDIUse=1 WtCom= 1.00D+00 WtEn= 0.00D+00
 Coeff-Com: -0.324D-01 0.196D+00 0.836D+00
 Coeff:     -0.324D-01 0.196D+00 0.836D+00
 Gap=     0.273 Goal=   None    Shift=    0.000
 RMSDP=2.48D-07 MaxDP=2.31D-06 DE=-1.20D-09 OVMax= 4.57D-06

 Cycle  10  Pass 1  IDiag  1:
 E= -94.4253756153599     Delta-E=       -0.000000000085 Rises=F Damp=F
 DIIS: error= 1.66D-07 at cycle   4 NSaved=   4.
 NSaved= 4 IEnMin= 4 EnMin= -94.4253756153599     IErMin= 4 ErrMin= 1.66D-07
 ErrMax= 1.66D-07  0.00D+00 EMaxC= 1.00D-01 BMatC= 1.10D-12 BMatP= 8.92D-11
 IDIUse=1 WtCom= 1.00D+00 WtEn= 0.00D+00
 Coeff-Com: -0.192D-01 0.527D-01 0.218D+00 0.749D+00
 Coeff:     -0.192D-01 0.527D-01 0.218D+00 0.749D+00
 Gap=     0.273 Goal=   None    Shift=    0.000
 RMSDP=4.45D-08 MaxDP=3.91D-07 DE=-8.47D-11 OVMax= 4.47D-07

 Cycle  11  Pass 1  IDiag  1:
 E= -94.4253756153613     Delta-E=       -0.000000000001 Rises=F Damp=F
 DIIS: error= 3.92D-08 at cycle   5 NSaved=   5.
 NSaved= 5 IEnMin= 5 EnMin= -94.4253756153613     IErMin= 5 ErrMin= 3.92D-08
 ErrMax= 3.92D-08  0.00D+00 EMaxC= 1.00D-01 BMatC= 7.45D-14 BMatP= 1.10D-12
 IDIUse=1 WtCom= 1.00D+00 WtEn= 0.00D+00
 Coeff-Com: -0.529D-02 0.129D-01 0.463D-01 0.250D+00 0.696D+00
 Coeff:     -0.529D-02 0.129D-01 0.463D-01 0.250D+00 0.696D+00
 Gap=     0.273 Goal=   None    Shift=    0.000
 RMSDP=9.90D-09 MaxDP=9.99D-08 DE=-1.34D-12 OVMax= 1.14D-07

 SCF Done:  E(RPBE1PBE) =  -94.4253756154     A.U. after   11 cycles
            NFock= 11  Conv=0.99D-08     -V/T= 2.0091
 KE= 9.357736163086D+01 PE=-2.842834851481D+02 EE= 6.396254566561D+01
 Leave Link  502 at Wed Sep  2 15:35:46 2015, MaxMem=    33554432 cpu:         2.1
 (Enter /group/hpc-share/gaussian/2009D/g09/l701.exe)
 Compute integral first derivatives.
 ... and contract with generalized density number  0.
 Leave Link  701 at Wed Sep  2 15:35:47 2015, MaxMem=    33554432 cpu:         1.4
 (Enter /group/hpc-share/gaussian/2009D/g09/l702.exe)
 L702 exits ... SP integral derivatives will be done elsewhere.
 Leave Link  702 at Wed Sep  2 15:35:47 2015, MaxMem=    33554432 cpu:         0.1
 (Enter /group/hpc-share/gaussian/2009D/g09/l703.exe)
 Compute integral first derivatives, UseDBF=F ICtDFT=           0.
 Integral derivatives from FoFJK, PRISM(SPDF).
 Calling FoFJK, ICntrl=      2127 FMM=F ISym2X=1 I1Cent= 0 IOpClX= 0 NMat=1 NMatS=1 NMatT=0.
 FoFJK:  IHMeth= 1 ICntrl=    2127 DoSepK=F KAlg= 0 I1Cent=   0 FoldK=F
 IRaf=         0 NMat=   1 IRICut=       1 DoRegI=T DoRafI=F ISym2E= 1.
 FoFCou: FMM=F IPFlag=           0 FMFlag=      100000 FMFlg1=         800
         NFxFlg=           0 DoJE=F BraDBF=F KetDBF=F FulRan=T
         wScrn=  0.000000 ICntrl=    2127 IOpCl=  0 I1Cent=           0 NGrid=           0
         NMat0=    1 NMatS0=      1 NMatT0=    0 NMatD0=    1 NMtDS0=    0 NMtDT0=    0
 Petite list used in FoFCou.
 Leave Link  703 at Wed Sep  2 15:35:47 2015, MaxMem=    33554432 cpu:         1.4
 (Enter /group/hpc-share/gaussian/2009D/g09/l716.exe)
 Dipole        =-5.75086521D-01 5.81928136D-01 2.93484426D-31
 ***** Axes restored to original set *****
 -------------------------------------------------------------------
 Center     Atomic                   Forces (Hartrees/Bohr)
 Number     Number              X              Y              Z
 -------------------------------------------------------------------
      1        6          -0.007664027    0.000000000   -0.057190910
      2        1          -0.015056548    0.000000000    0.003129138
      3        1           0.006348343    0.000000000    0.003448649
      4        7           0.023869656    0.000000000    0.051956216
      5        1          -0.007497424    0.000000000   -0.001343093
 -------------------------------------------------------------------
 Cartesian Forces:  Max     0.057190910 RMS     0.021518128
 Leave Link  716 at Wed Sep  2 15:35:47 2015, MaxMem=    33554432 cpu:         0.2
 (Enter /group/hpc-share/gaussian/2009D/g09/l103.exe)

 GradGradGradGradGradGradGradGradGradGradGradGradGradGradGradGradGradGrad
 Berny optimization.
 Using GEDIIS/GDIIS optimizer.
 FormGI is forming the generalized inverse of G from B-inverse, IUseBI=4.
 Internal  Forces:  Max     0.049341887 RMS     0.017826715
 Search for a local minimum.
 Step number   2 out of a maximum of   21
 All quantities printed in internal units (Hartrees-Bohrs-Radians)
 RMS Force = .17827D-01 SwitMx=.10000D-02 MixMth= 1
 Mixed Optimization -- RFO/linear search
 Update second derivatives using D2CorX and points    1    2
 DE= -3.41D-02 DEPred=-3.18D-02 R= 1.07D+00
 TightC=F SS=  1.41D+00  RLast= 3.00D-01 DXNew= 5.0454D-01 9.0000D-01
 Trust test= 1.07D+00 RLast= 3.00D-01 DXMaxT set to 5.05D-01
 The second derivative matrix:
                          R1        R2        R3        R4        A1
           R1           0.34885
           R2          -0.00055   0.34868
           R3           0.00292   0.00580   0.42018
           R4          -0.00039  -0.00080  -0.00401   0.46374
           A1          -0.00002  -0.00039  -0.00755   0.00114   0.16135
           A2           0.00210   0.00221  -0.02382   0.00333   0.00180
           A3          -0.00208  -0.00182   0.03137  -0.00446  -0.00315
           A4          -0.00202  -0.00125   0.04159  -0.00600  -0.00500
           D1           0.00000   0.00000   0.00000   0.00000   0.00000
           D2           0.00000   0.00000   0.00000   0.00000   0.00000
           D3           0.00000   0.00000   0.00000   0.00000   0.00000
                          A2        A3        A4        D1        D2
           A2           0.15199
           A3           0.00621   0.15694
           A4           0.00362   0.00138   0.16837
           D1           0.00000   0.00000   0.00000   0.00248
           D2           0.00000   0.00000   0.00000   0.00000   0.01163
           D3           0.00000   0.00000   0.00000   0.00000   0.00000
                          D3
           D3           0.01163
 ITU=  1  0
 Use linear search instead of GDIIS.
     Eigenvalues ---    0.00659   0.01163   0.13921   0.16000   0.16683
     Eigenvalues ---    0.34803   0.34930   0.43181   0.46491
 RFO step:  Lambda=-3.31175932D-03 EMin= 6.59347887D-03
 Quartic linear search produced a step of  0.34743.
 Iteration  1 RMS(Cart)=  0.05798048 RMS(Int)=  0.00198319
 Iteration  2 RMS(Cart)=  0.00244462 RMS(Int)=  0.00000083
 Iteration  3 RMS(Cart)=  0.00000070 RMS(Int)=  0.00000000
 ITry= 1 IFail=0 DXMaxC= 9.03D-02 DCOld= 1.00D+10 DXMaxT= 5.05D-01 DXLimC= 3.00D+00 Rises=F
 ClnCor:  largest displacement from symmetrization is 6.27D-10 for atom     4.
 Variable       Old X    -DE/DX   Delta X   Delta X   Delta X     New X
                                 (Linear)    (Quad)   (Total)
    R1        2.07689   0.00473   0.00660   0.00545   0.01205   2.08894
    R2        2.07452   0.00507   0.00577   0.00832   0.01409   2.08861
    R3        2.46685  -0.04934  -0.08837  -0.00622  -0.09459   2.37226
    R4        1.93578   0.00644   0.01075   0.00024   0.01098   1.94677
    A1        1.97403   0.00657   0.02202  -0.00910   0.01292   1.98695
    A2        2.33853  -0.02384  -0.04287  -0.07336  -0.11623   2.22230
    A3        1.97063   0.01727   0.02084   0.08247   0.10331   2.07394
    A4        1.88117   0.00788  -0.01023   0.09431   0.08407   1.96525
    D1        3.14159   0.00000   0.00000   0.00000   0.00000   3.14159
    D2        0.00000   0.00000   0.00000   0.00000   0.00000   0.00000
    D3        3.14159   0.00000   0.00000   0.00000   0.00000   3.14159
         Item               Value     Threshold  Converged?
 Maximum Force            0.049342     0.000450     NO 
 RMS     Force            0.017827     0.000300     NO 
 Maximum Displacement     0.090321     0.001800     NO 
 RMS     Displacement     0.058211     0.001200     NO 
 Predicted change in Energy=-6.765221D-03
 Lowest energy point so far.  Saving SCF results.
 GradGradGradGradGradGradGradGradGradGradGradGradGradGradGradGradGradGrad

 Leave Link  103 at Wed Sep  2 15:35:47 2015, MaxMem=    33554432 cpu:         0.0
 (Enter /group/hpc-share/gaussian/2009D/g09/l202.exe)
                          Input orientation:                          
 ---------------------------------------------------------------------
 Center     Atomic      Atomic             Coordinates (Angstroms)
 Number     Number       Type             X           Y           Z
 ---------------------------------------------------------------------
      1          6           0        0.011598    0.000000   -0.103916
      2          1           0       -0.174360    0.000000    0.985753
      3          1           0        1.083265    0.000000   -0.374276
      4          7           0       -0.844335    0.000000   -1.022213
      5          1           0       -1.809993    0.000000   -0.663348
 ---------------------------------------------------------------------
                    Distance matrix (angstroms):
                    1          2          3          4          5
     1  C    0.000000
     2  H    1.105422   0.000000
     3  H    1.105244   1.852376   0.000000
     4  N    1.255345   2.116788   2.033584   0.000000
     5  H    1.905560   2.322677   2.907663   1.030184   0.000000
 Stoichiometry    CH3N
 Framework group  CS[SG(CH3N)]
 Deg. of freedom     7
 Full point group                 CS      NOp   2
 RotChk:  IX=0 Diff= 7.72D-02
 Largest Abelian subgroup         CS      NOp   2
 Largest concise Abelian subgroup C1      NOp   1
                         Standard orientation:                         
 ---------------------------------------------------------------------
 Center     Atomic      Atomic             Coordinates (Angstroms)
 Number     Number       Type             X           Y           Z
 ---------------------------------------------------------------------
      1          6           0        0.053862    0.577214    0.000000
      2          1           0       -0.825137    1.247526    0.000000
      3          1           0        1.022137    1.110139    0.000000
      4          7           0        0.053862   -0.678131    0.000000
      5          1           0       -0.897211   -1.074033    0.000000
 ---------------------------------------------------------------------
 Rotational constants (GHZ):    199.7763556     35.0127577     29.7915054
 Leave Link  202 at Wed Sep  2 15:35:47 2015, MaxMem=    33554432 cpu:         0.0
 (Enter /group/hpc-share/gaussian/2009D/g09/l301.exe)
 Basis read from rwf:  (5D, 7F)
 No pseudopotential information found on rwf file.
 There are    28 symmetry adapted cartesian basis functions of A'  symmetry.
 There are     8 symmetry adapted cartesian basis functions of A"  symmetry.
 There are    26 symmetry adapted basis functions of A'  symmetry.
 There are     8 symmetry adapted basis functions of A"  symmetry.
    34 basis functions,    62 primitive gaussians,    36 cartesian basis functions
     8 alpha electrons        8 beta electrons
       nuclear repulsion energy        32.9785183892 Hartrees.
 IExCor= 1009 DFT=T Ex+Corr=PBE1PBE ExCW=0 ScaHFX=  0.250000
 ScaDFX=  0.750000  0.750000  1.000000  1.000000 ScalE2=  1.000000  1.000000
 IRadAn=      0 IRanWt=     -1 IRanGd=            0 ICorTp=0 IEmpDi=  4
 NAtoms=    5 NActive=    5 NUniq=    5 SFac= 1.00D+00 NAtFMM=   60 NAOKFM=F Big=F
 Integral buffers will be    131072 words long.
 Raffenetti 2 integral format.
 Two-electron integral symmetry is turned on.
 No density basis found on file   724.
 Leave Link  301 at Wed Sep  2 15:35:47 2015, MaxMem=    33554432 cpu:         0.5
 (Enter /group/hpc-share/gaussian/2009D/g09/l302.exe)
 NPDir=0 NMtPBC=     1 NCelOv=     1 NCel=       1 NClECP=     1 NCelD=      1
         NCelK=      1 NCelE2=     1 NClLst=     1 CellRange=     0.0.
 One-electron integrals computed using PRISM.
 NBasis=    34 RedAO= T EigKep=  1.40D-02  NBF=    26     8
 NBsUse=    34 1.00D-06 EigRej= -1.00D+00 NBFU=    26     8
 Precomputing XC quadrature grid using
 IXCGrd= 4 IRadAn=           0 IRanWt=          -1 IRanGd=           0 AccXCQ= 0.00D+00.
 Generated NRdTot=       0 NPtTot=           0 NUsed=           0 NTot=          32
 NSgBfM=    36    36    36    36    36 MxSgAt=     5 MxSgA2=     5.
 Leave Link  302 at Wed Sep  2 15:35:47 2015, MaxMem=    33554432 cpu:         1.5
 (Enter /group/hpc-share/gaussian/2009D/g09/l303.exe)
 DipDrv:  MaxL=1.
 Leave Link  303 at Wed Sep  2 15:35:47 2015, MaxMem=    33554432 cpu:         0.1
 (Enter /group/hpc-share/gaussian/2009D/g09/l401.exe)
 Initial guess from the checkpoint file:  "methanimine.chk"
 B after Tr=     0.000000    0.000000    0.000000
         Rot=    0.999847    0.000000    0.000000   -0.017481 Ang=  -2.00 deg.
 Guess basis will be translated and rotated to current coordinates.
 JPrj=2 DoOrth=T DoCkMO=T.
 Initial guess orbital symmetries:
       Occupied  (A') (A') (A') (A') (A') (A') (A") (A')
       Virtual   (A') (A') (A') (A') (A') (A') (A') (A') (A') (A')
                 (A') (A') (A') (A') (A') (A') (A') (A') (A') (A")
                 (A") (A") (A") (A") (A") (A")
 The electronic state of the initial guess is 1-A'.
 Generating alternative initial guess.
 ExpMin= 1.22D-01 ExpMax= 1.71D+03 ExpMxC= 2.58D+02 IAcc=1 IRadAn=         1 AccDes= 0.00D+00
 Harris functional with IExCor= 1009 and IRadAn=       1 diagonalized for initial guess.
 HarFok:  IExCor= 1009 AccDes= 0.00D+00 IRadAn=         1 IDoV= 1 UseB2=F ITyADJ=14
 ICtDFT=  3500011 ScaDFX=  1.000000  1.000000  1.000000  1.000000
 FoFCou: FMM=F IPFlag=           0 FMFlag=      100000 FMFlg1=           0
         NFxFlg=           0 DoJE=T BraDBF=F KetDBF=T FulRan=T
         wScrn=  0.000000 ICntrl=     500 IOpCl=  0 I1Cent=   200000004 NGrid=           0
         NMat0=    1 NMatS0=      1 NMatT0=    0 NMatD0=    1 NMtDS0=    0 NMtDT0=    0
 Petite list used in FoFCou.
 Harris En= -94.4556587771596    
 Leave Link  401 at Wed Sep  2 15:35:48 2015, MaxMem=    33554432 cpu:         1.4
 (Enter /group/hpc-share/gaussian/2009D/g09/l502.exe)
 Closed shell SCF:
 Using DIIS extrapolation, IDIIS=  1040.
 Integral symmetry usage will be decided dynamically.
 Keep R1 ints in memory in symmetry-blocked form, NReq=1062360.
 IVT=       23026 IEndB=       23026 NGot=    33554432 MDV=    33432961
 LenX=    33432961 LenY=    33431224
 Requested convergence on RMS density matrix=1.00D-08 within 128 cycles.
 Requested convergence on MAX density matrix=1.00D-06.
 Requested convergence on             energy=1.00D-06.
 No special actions if energy rises.
 FoFCou: FMM=F IPFlag=           0 FMFlag=           0 FMFlg1=           0
         NFxFlg=           0 DoJE=F BraDBF=F KetDBF=F FulRan=T
         wScrn=  0.000000 ICntrl=     600 IOpCl=  0 I1Cent=           0 NGrid=           0
         NMat0=    1 NMatS0=    595 NMatT0=    0 NMatD0=    1 NMtDS0=    0 NMtDT0=    0
 Petite list used in FoFCou.
 Integral accuracy reduced to 1.0D-05 until final iterations.

 Cycle   1  Pass 0  IDiag  1:
 E= -94.4280681988853    
 DIIS: error= 4.38D-03 at cycle   1 NSaved=   1.
 NSaved= 1 IEnMin= 1 EnMin= -94.4280681988853     IErMin= 1 ErrMin= 4.38D-03
 ErrMax= 4.38D-03  0.00D+00 EMaxC= 1.00D-01 BMatC= 1.53D-03 BMatP= 1.53D-03
 IDIUse=3 WtCom= 9.56D-01 WtEn= 4.38D-02
 Coeff-Com:  0.100D+01
 Coeff-En:   0.100D+01
 Coeff:      0.100D+01
 Gap=     0.545 Goal=   None    Shift=    0.000
 GapD=    0.545 DampG=2.000 DampE=1.000 DampFc=2.0000 IDamp=-1.
 RMSDP=2.06D-03 MaxDP=1.34D-02              OVMax= 1.59D-02

 Cycle   2  Pass 0  IDiag  1:
 E= -94.4301065076489     Delta-E=       -0.002038308764 Rises=F Damp=F
 DIIS: error= 1.66D-03 at cycle   2 NSaved=   2.
 NSaved= 2 IEnMin= 2 EnMin= -94.4301065076489     IErMin= 2 ErrMin= 1.66D-03
 ErrMax= 1.66D-03  0.00D+00 EMaxC= 1.00D-01 BMatC= 1.62D-04 BMatP= 1.53D-03
 IDIUse=3 WtCom= 9.83D-01 WtEn= 1.66D-02
 Coeff-Com:  0.137D+00 0.863D+00
 Coeff-En:   0.000D+00 0.100D+01
 Coeff:      0.135D+00 0.865D+00
 Gap=     0.273 Goal=   None    Shift=    0.000
 RMSDP=5.93D-04 MaxDP=6.38D-03 DE=-2.04D-03 OVMax= 6.61D-03

 Cycle   3  Pass 0  IDiag  1:
 E= -94.4301415128946     Delta-E=       -0.000035005246 Rises=F Damp=F
 DIIS: error= 1.73D-03 at cycle   3 NSaved=   3.
 NSaved= 3 IEnMin= 3 EnMin= -94.4301415128946     IErMin= 2 ErrMin= 1.66D-03
 ErrMax= 1.73D-03  0.00D+00 EMaxC= 1.00D-01 BMatC= 1.26D-04 BMatP= 1.62D-04
 IDIUse=3 WtCom= 9.83D-01 WtEn= 1.73D-02
 Coeff-Com: -0.919D-02 0.467D+00 0.542D+00
 Coeff-En:   0.000D+00 0.433D+00 0.567D+00
 Coeff:     -0.904D-02 0.467D+00 0.542D+00
 Gap=     0.274 Goal=   None    Shift=    0.000
 RMSDP=3.45D-04 MaxDP=3.63D-03 DE=-3.50D-05 OVMax= 6.06D-03

 Cycle   4  Pass 0  IDiag  1:
 E= -94.4302439254875     Delta-E=       -0.000102412593 Rises=F Damp=F
 DIIS: error= 9.79D-04 at cycle   4 NSaved=   4.
 NSaved= 4 IEnMin= 4 EnMin= -94.4302439254875     IErMin= 4 ErrMin= 9.79D-04
 ErrMax= 9.79D-04  0.00D+00 EMaxC= 1.00D-01 BMatC= 1.60D-05 BMatP= 1.26D-04
 IDIUse=3 WtCom= 9.90D-01 WtEn= 9.79D-03
 Coeff-Com: -0.153D-01 0.205D+00 0.333D+00 0.477D+00
 Coeff-En:   0.000D+00 0.000D+00 0.515D-01 0.948D+00
 Coeff:     -0.152D-01 0.203D+00 0.330D+00 0.482D+00
 Gap=     0.273 Goal=   None    Shift=    0.000
 RMSDP=9.76D-05 MaxDP=1.15D-03 DE=-1.02D-04 OVMax= 2.16D-03

 Cycle   5  Pass 0  IDiag  1:
 E= -94.4302585366498     Delta-E=       -0.000014611162 Rises=F Damp=F
 DIIS: error= 1.00D-04 at cycle   5 NSaved=   5.
 NSaved= 5 IEnMin= 5 EnMin= -94.4302585366498     IErMin= 5 ErrMin= 1.00D-04
 ErrMax= 1.00D-04  0.00D+00 EMaxC= 1.00D-01 BMatC= 3.91D-07 BMatP= 1.60D-05
 IDIUse=3 WtCom= 9.99D-01 WtEn= 1.00D-03
 Coeff-Com: -0.426D-02 0.281D-01 0.747D-01 0.188D+00 0.713D+00
 Coeff-En:   0.000D+00 0.000D+00 0.000D+00 0.000D+00 0.100D+01
 Coeff:     -0.426D-02 0.281D-01 0.746D-01 0.188D+00 0.714D+00
 Gap=     0.274 Goal=   None    Shift=    0.000
 RMSDP=1.94D-05 MaxDP=2.17D-04 DE=-1.46D-05 OVMax= 2.28D-04

 Cycle   6  Pass 0  IDiag  1:
 E= -94.4302589506821     Delta-E=       -0.000000414032 Rises=F Damp=F
 DIIS: error= 6.49D-06 at cycle   6 NSaved=   6.
 NSaved= 6 IEnMin= 6 EnMin= -94.4302589506821     IErMin= 6 ErrMin= 6.49D-06
 ErrMax= 6.49D-06  0.00D+00 EMaxC= 1.00D-01 BMatC= 2.09D-09 BMatP= 3.91D-07
 IDIUse=1 WtCom= 1.00D+00 WtEn= 0.00D+00
 Coeff-Com: -0.149D-04-0.419D-02-0.192D-02 0.716D-02 0.879D-01 0.911D+00
 Coeff:     -0.149D-04-0.419D-02-0.192D-02 0.716D-02 0.879D-01 0.911D+00
 Gap=     0.274 Goal=   None    Shift=    0.000
 RMSDP=2.03D-06 MaxDP=1.82D-05 DE=-4.14D-07 OVMax= 1.87D-05

 Initial convergence to 1.0D-05 achieved.  Increase integral accuracy.
 Cycle   7  Pass 1  IDiag  1:
 E= -94.4302642042037     Delta-E=       -0.000005253522 Rises=F Damp=F
 DIIS: error= 7.52D-06 at cycle   1 NSaved=   1.
 NSaved= 1 IEnMin= 1 EnMin= -94.4302642042037     IErMin= 1 ErrMin= 7.52D-06
 ErrMax= 7.52D-06  0.00D+00 EMaxC= 1.00D-01 BMatC= 6.07D-10 BMatP= 6.07D-10
 IDIUse=1 WtCom= 1.00D+00 WtEn= 0.00D+00
 Coeff-Com:  0.100D+01
 Coeff:      0.100D+01
 Gap=     0.274 Goal=   None    Shift=    0.000
 RMSDP=2.03D-06 MaxDP=1.82D-05 DE=-5.25D-06 OVMax= 2.72D-05

 Cycle   8  Pass 1  IDiag  1:
 E= -94.4302642053306     Delta-E=       -0.000000001127 Rises=F Damp=F
 DIIS: error= 2.46D-06 at cycle   2 NSaved=   2.
 NSaved= 2 IEnMin= 2 EnMin= -94.4302642053306     IErMin= 2 ErrMin= 2.46D-06
 ErrMax= 2.46D-06  0.00D+00 EMaxC= 1.00D-01 BMatC= 1.22D-10 BMatP= 6.07D-10
 IDIUse=1 WtCom= 1.00D+00 WtEn= 0.00D+00
 Coeff-Com:  0.145D+00 0.855D+00
 Coeff:      0.145D+00 0.855D+00
 Gap=     0.274 Goal=   None    Shift=    0.000
 RMSDP=6.42D-07 MaxDP=6.66D-06 DE=-1.13D-09 OVMax= 1.20D-05

 Cycle   9  Pass 1  IDiag  1:
 E= -94.4302642052410     Delta-E=        0.000000000090 Rises=F Damp=F
 DIIS: error= 3.65D-06 at cycle   3 NSaved=   3.
 NSaved= 3 IEnMin= 2 EnMin= -94.4302642053306     IErMin= 2 ErrMin= 2.46D-06
 ErrMax= 3.65D-06  0.00D+00 EMaxC= 1.00D-01 BMatC= 2.26D-10 BMatP= 1.22D-10
 IDIUse=1 WtCom= 1.00D+00 WtEn= 0.00D+00
 Coeff-Com: -0.306D-01 0.596D+00 0.434D+00
 Coeff:     -0.306D-01 0.596D+00 0.434D+00
 Gap=     0.274 Goal=   None    Shift=    0.000
 RMSDP=3.36D-07 MaxDP=3.96D-06 DE= 8.97D-11 OVMax= 7.91D-06

 Cycle  10  Pass 1  IDiag  1:
 E= -94.4302642054519     Delta-E=       -0.000000000211 Rises=F Damp=F
 DIIS: error= 1.56D-07 at cycle   4 NSaved=   4.
 NSaved= 4 IEnMin= 4 EnMin= -94.4302642054519     IErMin= 4 ErrMin= 1.56D-07
 ErrMax= 1.56D-07  0.00D+00 EMaxC= 1.00D-01 BMatC= 1.49D-12 BMatP= 1.22D-10
 IDIUse=1 WtCom= 1.00D+00 WtEn= 0.00D+00
 Coeff-Com: -0.196D-01 0.177D+00 0.155D+00 0.687D+00
 Coeff:     -0.196D-01 0.177D+00 0.155D+00 0.687D+00
 Gap=     0.274 Goal=   None    Shift=    0.000
 RMSDP=4.44D-08 MaxDP=3.77D-07 DE=-2.11D-10 OVMax= 4.51D-07

 Cycle  11  Pass 1  IDiag  1:
 E= -94.4302642054533     Delta-E=       -0.000000000001 Rises=F Damp=F
 DIIS: error= 4.38D-08 at cycle   5 NSaved=   5.
 NSaved= 5 IEnMin= 5 EnMin= -94.4302642054533     IErMin= 5 ErrMin= 4.38D-08
 ErrMax= 4.38D-08  0.00D+00 EMaxC= 1.00D-01 BMatC= 7.13D-14 BMatP= 1.49D-12
 IDIUse=1 WtCom= 1.00D+00 WtEn= 0.00D+00
 Coeff-Com: -0.536D-02 0.393D-01 0.407D-01 0.243D+00 0.682D+00
 Coeff:     -0.536D-02 0.393D-01 0.407D-01 0.243D+00 0.682D+00
 Gap=     0.274 Goal=   None    Shift=    0.000
 RMSDP=8.61D-09 MaxDP=1.08D-07 DE=-1.39D-12 OVMax= 8.86D-08

 SCF Done:  E(RPBE1PBE) =  -94.4302642055     A.U. after   11 cycles
            NFock= 11  Conv=0.86D-08     -V/T= 2.0081
 KE= 9.367514147403D+01 PE=-2.856906867438D+02 EE= 6.460676267518D+01
[...]
 FoFCou: FMM=F IPFlag=           0 FMFlag=           0 FMFlg1=           0
         NFxFlg=           0 DoJE=F BraDBF=F KetDBF=F FulRan=T
         wScrn=  0.000000 ICntrl=     600 IOpCl=  0 I1Cent=           0 NGrid=           0
         NMat0=    1 NMatS0=    595 NMatT0=    0 NMatD0=    1 NMtDS0=    0 NMtDT0=    0
 Petite list used in FoFCou.

 Cycle   1  Pass 1  IDiag  1:
 E= -94.4306054757644    
 DIIS: error= 7.69D-05 at cycle   1 NSaved=   1.
 NSaved= 1 IEnMin= 1 EnMin= -94.4306054757644     IErMin= 1 ErrMin= 7.69D-05
 ErrMax= 7.69D-05  0.00D+00 EMaxC= 1.00D-01 BMatC= 4.33D-07 BMatP= 4.33D-07
 IDIUse=1 WtCom= 1.00D+00 WtEn= 0.00D+00
 Coeff-Com:  0.100D+01
 Coeff:      0.100D+01
 Gap=     0.548 Goal=   None    Shift=    0.000
 RMSDP=3.42D-05 MaxDP=2.78D-04              OVMax= 3.23D-04

 Cycle   2  Pass 1  IDiag  1:
 E= -94.4306060250023     Delta-E=       -0.000000549238 Rises=F Damp=F
 DIIS: error= 4.65D-05 at cycle   2 NSaved=   2.
 NSaved= 2 IEnMin= 2 EnMin= -94.4306060250023     IErMin= 2 ErrMin= 4.65D-05
 ErrMax= 4.65D-05  0.00D+00 EMaxC= 1.00D-01 BMatC= 6.73D-08 BMatP= 4.33D-07
 IDIUse=1 WtCom= 1.00D+00 WtEn= 0.00D+00
 Coeff-Com:  0.169D+00 0.831D+00
 Coeff:      0.169D+00 0.831D+00
 Gap=     0.274 Goal=   None    Shift=    0.000
 RMSDP=1.26D-05 MaxDP=1.46D-04 DE=-5.49D-07 OVMax= 2.58D-04

 Cycle   3  Pass 1  IDiag  1:
 E= -94.4306059874253     Delta-E=        0.000000037577 Rises=F Damp=F
 DIIS: error= 7.23D-05 at cycle   3 NSaved=   3.
 NSaved= 3 IEnMin= 2 EnMin= -94.4306060250023     IErMin= 2 ErrMin= 4.65D-05
 ErrMax= 7.23D-05  0.00D+00 EMaxC= 1.00D-01 BMatC= 1.07D-07 BMatP= 6.73D-08
 IDIUse=1 WtCom= 1.00D+00 WtEn= 0.00D+00
 Coeff-Com: -0.145D-01 0.565D+00 0.450D+00
 Coeff:     -0.145D-01 0.565D+00 0.450D+00
 Gap=     0.274 Goal=   None    Shift=    0.000
 RMSDP=7.90D-06 MaxDP=9.05D-05 DE= 3.76D-08 OVMax= 1.71D-04

 Cycle   4  Pass 1  IDiag  1:
 E= -94.4306060838052     Delta-E=       -0.000000096380 Rises=F Damp=F
 DIIS: error= 8.91D-06 at cycle   4 NSaved=   4.
 NSaved= 4 IEnMin= 4 EnMin= -94.4306060838052     IErMin= 4 ErrMin= 8.91D-06
 ErrMax= 8.91D-06  0.00D+00 EMaxC= 1.00D-01 BMatC= 1.52D-09 BMatP= 6.73D-08
 IDIUse=1 WtCom= 1.00D+00 WtEn= 0.00D+00
 Coeff-Com: -0.173D-01 0.176D+00 0.192D+00 0.649D+00
 Coeff:     -0.173D-01 0.176D+00 0.192D+00 0.649D+00
 Gap=     0.274 Goal=   None    Shift=    0.000
 RMSDP=1.04D-06 MaxDP=1.28D-05 DE=-9.64D-08 OVMax= 1.82D-05

 Cycle   5  Pass 1  IDiag  1:
 E= -94.4306060852089     Delta-E=       -0.000000001404 Rises=F Damp=F
 DIIS: error= 1.25D-06 at cycle   5 NSaved=   5.
 NSaved= 5 IEnMin= 5 EnMin= -94.4306060852089     IErMin= 5 ErrMin= 1.25D-06
 ErrMax= 1.25D-06  0.00D+00 EMaxC= 1.00D-01 BMatC= 6.66D-11 BMatP= 1.52D-09
 IDIUse=1 WtCom= 1.00D+00 WtEn= 0.00D+00
 Coeff-Com: -0.532D-02 0.317D-01 0.497D-01 0.255D+00 0.669D+00
 Coeff:     -0.532D-02 0.317D-01 0.497D-01 0.255D+00 0.669D+00
 Gap=     0.274 Goal=   None    Shift=    0.000
 RMSDP=2.76D-07 MaxDP=2.62D-06 DE=-1.40D-09 OVMax= 2.64D-06

 Cycle   6  Pass 1  IDiag  1:
 E= -94.4306060852805     Delta-E=       -0.000000000072 Rises=F Damp=F
 DIIS: error= 1.26D-07 at cycle   6 NSaved=   6.
 NSaved= 6 IEnMin= 6 EnMin= -94.4306060852805     IErMin= 6 ErrMin= 1.26D-07
 ErrMax= 1.26D-07  0.00D+00 EMaxC= 1.00D-01 BMatC= 4.58D-13 BMatP= 6.66D-11
 IDIUse=1 WtCom= 1.00D+00 WtEn= 0.00D+00
 Coeff-Com: -0.125D-03-0.193D-02 0.501D-03 0.102D-01 0.875D-01 0.904D+00
 Coeff:     -0.125D-03-0.193D-02 0.501D-03 0.102D-01 0.875D-01 0.904D+00
 Gap=     0.274 Goal=   None    Shift=    0.000
 RMSDP=2.37D-08 MaxDP=1.74D-07 DE=-7.17D-11 OVMax= 2.59D-07

 Cycle   7  Pass 1  IDiag  1:
 E= -94.4306060852813     Delta-E=       -0.000000000001 Rises=F Damp=F
 DIIS: error= 1.54D-08 at cycle   7 NSaved=   7.
 NSaved= 7 IEnMin= 7 EnMin= -94.4306060852813     IErMin= 7 ErrMin= 1.54D-08
 ErrMax= 1.54D-08  0.00D+00 EMaxC= 1.00D-01 BMatC= 9.00D-15 BMatP= 4.58D-13
 IDIUse=1 WtCom= 1.00D+00 WtEn= 0.00D+00
 Coeff-Com:  0.665D-04-0.781D-03-0.794D-03-0.254D-02 0.335D-02 0.153D+00
 Coeff-Com:  0.848D+00
 Coeff:      0.665D-04-0.781D-03-0.794D-03-0.254D-02 0.335D-02 0.153D+00
 Coeff:      0.848D+00
 Gap=     0.274 Goal=   None    Shift=    0.000
 RMSDP=5.42D-09 MaxDP=3.47D-08 DE=-7.67D-13 OVMax= 4.48D-08

 SCF Done:  E(RPBE1PBE) =  -94.4306060853     A.U. after    7 cycles
            NFock=  7  Conv=0.54D-08     -V/T= 2.0083
 KE= 9.365273941527D+01 PE=-2.854449159833D+02 EE= 6.449777841803D+01
 Leave Link  502 at Wed Sep  2 15:35:56 2015, MaxMem=    33554432 cpu:         2.2
 (Enter /group/hpc-share/gaussian/2009D/g09/l701.exe)
 Compute integral first derivatives.
 ... and contract with generalized density number  0.
 Leave Link  701 at Wed Sep  2 15:35:56 2015, MaxMem=    33554432 cpu:         1.0
 (Enter /group/hpc-share/gaussian/2009D/g09/l702.exe)
 L702 exits ... SP integral derivatives will be done elsewhere.
 Leave Link  702 at Wed Sep  2 15:35:56 2015, MaxMem=    33554432 cpu:         0.1
 (Enter /group/hpc-share/gaussian/2009D/g09/l703.exe)
 Compute integral first derivatives, UseDBF=F ICtDFT=           0.
 Integral derivatives from FoFJK, PRISM(SPDF).
 Calling FoFJK, ICntrl=      2127 FMM=F ISym2X=1 I1Cent= 0 IOpClX= 0 NMat=1 NMatS=1 NMatT=0.
 FoFJK:  IHMeth= 1 ICntrl=    2127 DoSepK=F KAlg= 0 I1Cent=   0 FoldK=F
 IRaf=         0 NMat=   1 IRICut=       1 DoRegI=T DoRafI=F ISym2E= 1.
 FoFCou: FMM=F IPFlag=           0 FMFlag=      100000 FMFlg1=         800
         NFxFlg=           0 DoJE=F BraDBF=F KetDBF=F FulRan=T
         wScrn=  0.000000 ICntrl=    2127 IOpCl=  0 I1Cent=           0 NGrid=           0
         NMat0=    1 NMatS0=      1 NMatT0=    0 NMatD0=    1 NMtDS0=    0 NMtDT0=    0
 Petite list used in FoFCou.
 Leave Link  703 at Wed Sep  2 15:35:56 2015, MaxMem=    33554432 cpu:         1.4
 (Enter /group/hpc-share/gaussian/2009D/g09/l716.exe)
 Dipole        =-5.80996783D-01 5.19880615D-01-2.01939687D-31
 ***** Axes restored to original set *****
 -------------------------------------------------------------------
 Center     Atomic                   Forces (Hartrees/Bohr)
 Number     Number              X              Y              Z
 -------------------------------------------------------------------
      1        6          -0.000077843    0.000000000    0.000004138
      2        1           0.000008848    0.000000000   -0.000031837
      3        1           0.000035896    0.000000000   -0.000013819
      4        7           0.000051822    0.000000000    0.000034761
      5        1          -0.000018723    0.000000000    0.000006758
 -------------------------------------------------------------------
 Cartesian Forces:  Max     0.000077843 RMS     0.000029369
 Leave Link  716 at Wed Sep  2 15:35:56 2015, MaxMem=    33554432 cpu:         0.1
 (Enter /group/hpc-share/gaussian/2009D/g09/l103.exe)

 GradGradGradGradGradGradGradGradGradGradGradGradGradGradGradGradGradGrad
 Berny optimization.
 Using GEDIIS/GDIIS optimizer.
 FormGI is forming the generalized inverse of G from B-inverse, IUseBI=4.
 Internal  Forces:  Max     0.000051873 RMS     0.000022452
 Search for a local minimum.
 Step number   6 out of a maximum of   21
 All quantities printed in internal units (Hartrees-Bohrs-Radians)
 RMS Force = .22452D-04 SwitMx=.10000D-02 MixMth= 2
 Mixed Optimization -- En-DIIS/RFO-DIIS
 Swapping is turned off.
 Update second derivatives using D2CorX and points    1    2    3    4    5
                                                      6
 DE= -1.16D-06 DEPred=-1.17D-06 R= 9.93D-01
 TightC=F SS=  1.41D+00  RLast= 3.08D-03 DXNew= 1.0195D+00 9.2420D-03
 Trust test= 9.93D-01 RLast= 3.08D-03 DXMaxT set to 6.06D-01
 The second derivative matrix:
                          R1        R2        R3        R4        A1
           R1           0.34299
           R2          -0.00047   0.35267
           R3           0.01898   0.01935   0.78381
           R4           0.00263   0.00414  -0.00486   0.47345
           A1           0.01061   0.00867  -0.02886  -0.00005   0.13515
           A2          -0.00058  -0.00942   0.00109  -0.00616   0.01467
           A3          -0.01003   0.00075   0.02778   0.00621   0.01018
           A4          -0.00504   0.00048   0.07102   0.00936  -0.00480
           D1           0.00000   0.00000   0.00000   0.00000   0.00000
           D2           0.00000   0.00000   0.00000   0.00000   0.00000
           D3           0.00000   0.00000   0.00000   0.00000   0.00000
                          A2        A3        A4        D1        D2
           A2           0.15264
           A3          -0.00731   0.15713
           A4          -0.00415   0.00895   0.19530
           D1           0.00000   0.00000   0.00000   0.00248
           D2           0.00000   0.00000   0.00000   0.00000   0.01163
           D3           0.00000   0.00000   0.00000   0.00000   0.00000
                          D3
           D3           0.01163
 ITU=  1  1  1  1  1  0
     Eigenvalues ---    0.00595   0.01163   0.11918   0.15940   0.18768
     Eigenvalues ---    0.34379   0.35258   0.47422   0.79629
 En-DIIS/RFO-DIIS IScMMF=        0 using points:     6    5    4
 RFO step:  Lambda= 0.00000000D+00.
 NNeg= 0 NP= 3 Switch=  2.50D-03 Rises=F DC=  1.17D-05 SmlDif=  1.00D-05
 RMS Error=  0.3281613751D-04 NUsed= 3 EDIIS=F
 DidBck=F Rises=F RFO-DIIS coefs:    0.99776    0.00246   -0.00022
 Iteration  1 RMS(Cart)=  0.00004103 RMS(Int)=  0.00000000
 Iteration  2 RMS(Cart)=  0.00000000 RMS(Int)=  0.00000000
 ITry= 1 IFail=0 DXMaxC= 6.65D-05 DCOld= 1.00D+10 DXMaxT= 6.06D-01 DXLimC= 3.00D+00 Rises=F
 ClnCor:  largest displacement from symmetrization is 1.80D-13 for atom     4.
 Variable       Old X    -DE/DX   Delta X   Delta X   Delta X     New X
                                 (Linear)    (Quad)   (Total)
    R1        2.09620  -0.00003   0.00000  -0.00009  -0.00009   2.09611
    R2        2.08627   0.00004   0.00000   0.00011   0.00011   2.08638
    R3        2.38986  -0.00005   0.00000  -0.00007  -0.00007   2.38979
    R4        1.94230   0.00002   0.00000   0.00004   0.00004   1.94233
    A1        2.01909   0.00000   0.00000   0.00000   0.00000   2.01909
    A2        2.18732   0.00000   0.00000   0.00002   0.00002   2.18734
    A3        2.07677   0.00000   0.00000  -0.00002  -0.00002   2.07676
    A4        1.93123   0.00001  -0.00001   0.00006   0.00005   1.93128
    D1        3.14159   0.00000   0.00000   0.00000   0.00000   3.14159
    D2        0.00000   0.00000   0.00000   0.00000   0.00000   0.00000
    D3        3.14159   0.00000   0.00000   0.00000   0.00000   3.14159
         Item               Value     Threshold  Converged?
 Maximum Force            0.000052     0.000450     YES
 RMS     Force            0.000022     0.000300     YES
 Maximum Displacement     0.000067     0.001800     YES
 RMS     Displacement     0.000041     0.001200     YES
 Predicted change in Energy=-5.922944D-09
 Optimization completed.
    -- Stationary point found.
                           ----------------------------
                           !   Optimized Parameters   !
                           ! (Angstroms and Degrees)  !
 --------------------------                            --------------------------
 ! Name  Definition              Value          Derivative Info.                !
 --------------------------------------------------------------------------------
 ! R1    R(1,2)                  1.1093         -DE/DX =    0.0                 !
 ! R2    R(1,3)                  1.104          -DE/DX =    0.0                 !
 ! R3    R(1,4)                  1.2647         -DE/DX =   -0.0001              !
 ! R4    R(4,5)                  1.0278         -DE/DX =    0.0                 !
 ! A1    A(2,1,3)              115.6856         -DE/DX =    0.0                 !
 ! A2    A(2,1,4)              125.3241         -DE/DX =    0.0                 !
 ! A3    A(3,1,4)              118.9903         -DE/DX =    0.0                 !
 ! A4    A(1,4,5)              110.6511         -DE/DX =    0.0                 !
 ! D1    D(2,1,3,4)            180.0            -DE/DX =    0.0                 !
 ! D2    D(2,1,4,5)              0.0            -DE/DX =    0.0                 !
 ! D3    D(3,1,4,5)            180.0            -DE/DX =    0.0                 !
 --------------------------------------------------------------------------------
 Lowest energy point so far.  Saving SCF results.
 GradGradGradGradGradGradGradGradGradGradGradGradGradGradGradGradGradGrad

 Largest change from initial coordinates is atom    2       0.065 Angstoms.
 Leave Link  103 at Wed Sep  2 15:35:56 2015, MaxMem=    33554432 cpu:         0.0
 (Enter /group/hpc-share/gaussian/2009D/g09/l202.exe)
                          Input orientation:                          
 ---------------------------------------------------------------------
 Center     Atomic      Atomic             Coordinates (Angstroms)
 Number     Number       Type             X           Y           Z
 ---------------------------------------------------------------------
      1          6           0        0.019306    0.000000   -0.108426
      2          1           0       -0.202749    0.000000    0.978380
      3          1           0        1.089873    0.000000   -0.378086
      4          7           0       -0.845259    0.000000   -1.031408
      5          1           0       -1.794997    0.000000   -0.638459
 ---------------------------------------------------------------------
                    Distance matrix (angstroms):
                    1          2          3          4          5
     1  C    0.000000
     2  H    1.109259   0.000000
     3  H    1.104006   1.873732   0.000000
     4  N    1.264662   2.109992   2.042441   0.000000
     5  H    1.890140   2.269233   2.896596   1.027819   0.000000
 Stoichiometry    CH3N
 Framework group  CS[SG(CH3N)]
 Deg. of freedom     7
 Full point group                 CS      NOp   2
 RotChk:  IX=0 Diff= 9.91D-16
 Largest Abelian subgroup         CS      NOp   2
 Largest concise Abelian subgroup C1      NOp   1
                         Standard orientation:                         
 ---------------------------------------------------------------------
 Center     Atomic      Atomic             Coordinates (Angstroms)
 Number     Number       Type             X           Y           Z
 ---------------------------------------------------------------------
      1          6           0        0.056321    0.581458    0.000000
      2          1           0       -0.848717    1.222833    0.000000
      3          1           0        1.021997    1.116529    0.000000
      4          7           0        0.056321   -0.683203    0.000000
      5          1           0       -0.905455   -1.045691    0.000000
 ---------------------------------------------------------------------
 Rotational constants (GHZ):    194.8563313     34.9082402     29.6046148
 Leave Link  202 at Wed Sep  2 15:35:56 2015, MaxMem=    33554432 cpu:         0.0
 (Enter /group/hpc-share/gaussian/2009D/g09/l601.exe)
 Copying SCF densities to generalized density rwf, IOpCl= 0 IROHF=0.

 **********************************************************************

            Population analysis using the SCF density.

 **********************************************************************

 Orbital symmetries:
       Occupied  (A') (A') (A') (A') (A') (A') (A") (A')
       Virtual   (A") (A') (A') (A') (A') (A') (A") (A') (A') (A')
                 (A') (A') (A") (A') (A') (A') (A") (A") (A') (A')
                 (A") (A') (A') (A") (A') (A')
 The electronic state is 1-A'.
 Alpha  occ. eigenvalues --  -14.38426 -10.27684  -0.92295  -0.63152  -0.51718
 Alpha  occ. eigenvalues --   -0.44119  -0.34810  -0.27897
 Alpha virt. eigenvalues --   -0.00485   0.07578   0.10908   0.16013   0.27839
 Alpha virt. eigenvalues --    0.47177   0.50278   0.51705   0.59680   0.66146
 Alpha virt. eigenvalues --    0.69440   0.73676   0.81844   0.83151   1.01356
 Alpha virt. eigenvalues --    1.06267   1.57948   1.60582   1.89688   1.93096
 Alpha virt. eigenvalues --    2.19369   2.21833   2.52061   2.71817   2.78500
 Alpha virt. eigenvalues --    3.10144
          Condensed to atoms (all electrons):
               1          2          3          4          5
     1  C    4.864304   0.360361   0.369839   0.645897  -0.047181
     2  H    0.360361   0.636317  -0.067792  -0.025813  -0.026140
     3  H    0.369839  -0.067792   0.591716  -0.047714   0.012659
     4  N    0.645897  -0.025813  -0.047714   6.430701   0.289763
     5  H   -0.047181  -0.026140   0.012659   0.289763   0.549203
 Mulliken charges:
               1
     1  C   -0.193221
     2  H    0.123068
     3  H    0.141292
     4  N   -0.292835
     5  H    0.221696
 Sum of Mulliken charges =   0.00000
 Mulliken charges with hydrogens summed into heavy atoms:
               1
     1  C    0.071139
     4  N   -0.071139
 Electronic spatial extent (au):  <R**2>=             69.9057
 Charge=              0.0000 electrons
 Dipole moment (field-independent basis, Debye):
    X=             -1.4767    Y=              1.3214    Z=              0.0000  Tot=              1.9816
 Quadrupole moment (field-independent basis, Debye-Ang):
   XX=            -11.5981   YY=            -12.6448   ZZ=            -13.3102
   XY=              2.0006   XZ=              0.0000   YZ=              0.0000
 Traceless Quadrupole moment (field-independent basis, Debye-Ang):
   XX=              0.9196   YY=             -0.1271   ZZ=             -0.7925
   XY=              2.0006   XZ=              0.0000   YZ=              0.0000
 Octapole moment (field-independent basis, Debye-Ang**2):
  XXX=             -1.6029  YYY=              0.3609  ZZZ=              0.0000  XYY=             -2.2207
  XXY=             -0.0578  XXZ=              0.0000  XZZ=             -0.3893  YZZ=             -0.3975
  YYZ=              0.0000  XYZ=              0.0000
 Hexadecapole moment (field-independent basis, Debye-Ang**3):
 XXXX=            -20.9995 YYYY=            -54.8054 ZZZZ=            -12.4195 XXXY=              0.3390
 XXXZ=              0.0000 YYYX=              0.9535 YYYZ=              0.0000 ZZZX=              0.0000
 ZZZY=              0.0000 XXYY=            -11.3533 XXZZ=             -6.0121 YYZZ=            -11.3748
 XXYZ=              0.0000 YYXZ=              0.0000 ZZXY=             -0.3106
 N-N= 3.286379206470D+01 E-N=-2.854449158272D+02  KE= 9.365273941527D+01
 Symmetry A'   KE= 9.096780567806D+01
 Symmetry A"   KE= 2.684933737210D+00
 No NMR shielding tensors so no spin-rotation constants.
 Leave Link  601 at Wed Sep  2 15:35:56 2015, MaxMem=    33554432 cpu:         1.4
 (Enter /group/hpc-share/gaussian/2009D/g09/l9999.exe)
 B after Tr=    -0.077322    0.000000    0.020700
         Rot=    0.999922    0.000000    0.012462    0.000000 Ang=   1.43 deg.
 Final structure in terms of initial Z-matrix:
 C
 H,1,hc2
 H,1,hc3,2,hch3
 N,1,nc4,3,nch4,2,dih4,0
 H,4,hn5,1,hnc5,3,dih5,0
      Variables:
 hc2=1.10925899
 hc3=1.1040064
 hch3=115.6855775
 nc4=1.26466153
 nch4=118.99034877
 dih4=180.
 hn5=1.02781867
 hnc5=110.65114157
 dih5=180.
 1\1\GINC-HPC-CN12\FOpt\RPBE1PBE\Gen\C1H3N1\6498IVANOVM\02-Sep-2015\0\\
 #P PBE1PBE/gen opt\\methanimine\\0,1\C,0.0317548651,0.,-0.1187223351\H
 ,-0.1903006573,0.,0.9680834691\H,1.1023217387,0.,-0.3883826823\N,-0.83
 28100104,0.,-1.0417046539\H,-1.7825478677,0.,-0.6487552767\\Version=EM
 64L-G09RevD.01\State=1-A'\HF=-94.4306061\RMSD=5.417e-09\RMSF=2.937e-05
 \Dipole=-0.0686185,0.,0.776611\Quadrupole=1.8042399,-0.5892019,-1.2150
 381,0.,-0.2911594,0.\PG=CS [SG(C1H3N1)]\\@


 THERE IS NO SUBJECT, HOWEVER COMPLEX,
 WHICH, IF STUDIED WITH PATIENCE AND INTELLIGIENCE
 WILL NOT BECOME
 MORE COMPLEX
                        QUOTED BY D. GORDON ROHMAN
 Job cpu time:       0 days  0 hours  1 minutes  6.5 seconds.
 File lengths (MBytes):  RWF=      5 Int=      0 D2E=      0 Chk=      1 Scr=      1
 Normal termination of Gaussian 09 at Wed Sep  2 15:35:57 2015.
