 Entering Gaussian System, Link 0=g09
 Input=methanol.com
 Output=methanol.log
 AtFile(1): methanol.zmat
             o
             h   1 ho2
             c    1 co3         2 coh3
             h    3 hc4         1 hco4          2 dih4
             h    3 hc5         1 hco5          4 dih5
             h    3 hc6         1 hco6          4 dih6
            
            ho2         0.950000
            co3         1.400000
            coh3        109.471
            hc4         1.089000
            hco4        109.471
            dih4        180.000
            hc5         1.089000
            hco5        109.471
            dih5        120.000
            hc6         1.089000
            hco6        109.471
            dih6        240.000
 AtFile(1): /home/MARQNET/talipovm/basis-library/def2-SV(P)+d.gbs
            !  Def2-SV(P)  EMSL  Basis Set Exchange Library   3/29/11 8:36 AM
            ! Elements                             References
            ! --------                             ----------
            ! H He Li Be B C N O F Ne Na Mg Al Si P S Cl Ar K Ca Sc Ti V Cr Mn Fe Co Ni Cu Zn Ga Ge As Se Br Kr Rb Sr Y Zr Nb Mo Tc Ru Rh Pd Ag Cd In Sn Sb Te I Xe Cs Ba La Hf Ta W Re Os Ir Pt Au Hg Tl Pb Bi Po At Rn : F. Weigend and R. Ahlrichs, Phys. Chem. Chem. Phys., Balanced basis sets of split valence, triple zeta valence and quadruple zeta valence
            ! quality for H to Rn: Design and assessment of accuracy 7, 3297 (2005).
            !
            -H     0
            S   3   1.00
                 13.0107010              0.19682158E-01
                  1.9622572              0.13796524
                  0.44453796             0.47831935
            S   1   1.00
                  0.12194962             1.0000000
            ****
            -B     0
            S   5   1.00
                839.31830086            -0.55929201074E-02
                126.26464843            -0.41565520771E-01
                 28.620600763           -0.18299816983
                  7.8793722710          -0.46540391866
                  2.4088857172          -0.44173884791
            S   1   1.00
                  0.25105109036          1.0000000
            S   1   1.00
                  0.83648866069E-01            1.0000000
            P   3   1.00
                  6.0332223619          -0.35603672456E-01
                  1.2499157866          -0.19895775769
                  0.33871676350         -0.50850202618
            P   1   1.00
                  0.96415632351E-01            1.0000000
            D   1   1.00
                  0.5000000              1.0000000
            ****
            -C     0
            S   5   1.00
               1238.4016938              0.54568832082E-02
                186.29004992             0.40638409211E-01
                 42.251176346            0.18025593888
                 11.676557932            0.46315121755
                  3.5930506482           0.44087173314
            S   1   1.00
                  0.40245147363          1.0000000
            S   1   1.00
                  0.13090182668          1.0000000
            P   3   1.00
                  9.4680970621           0.38387871728E-01
                  2.0103545142           0.21117025112
                  0.54771004707          0.51328172114
            P   1   1.00
                  0.15268613795          1.0000000
            D   1   1.00
                  0.8000000              1.0000000
            ****
            -N     0
            S   5   1.00
               1712.8415853             -0.53934125305E-02
                257.64812677            -0.40221581118E-01
                 58.458245853           -0.17931144990
                 16.198367905           -0.46376317823
                  5.0052600809          -0.44171422662
            S   1   1.00
                  0.58731856571          1.0000000
            S   1   1.00
                  0.18764592253          1.0000000
            P   3   1.00
                 13.571470233           -0.40072398852E-01
                  2.9257372874          -0.21807045028
                  0.79927750754         -0.51294466049
            P   1   1.00
                  0.21954348034          1.0000000
            D   1   1.00
                  1.0000000              1.0000000
            ****
            -O     0
            S   5   1.00
               2266.1767785             -0.53431809926E-02
                340.87010191            -0.39890039230E-01
                 77.363135167           -0.17853911985
                 21.479644940           -0.46427684959
                  6.6589433124          -0.44309745172
            S   1   1.00
                  0.80975975668          1.0000000
            S   1   1.00
                  0.25530772234          1.0000000
            P   3   1.00
                 17.721504317            0.43394573193E-01
                  3.8635505440           0.23094120765
                  1.0480920883           0.51375311064
            P   1   1.00
                  0.27641544411          1.0000000
            D   1   1.00
                  1.2000000              1.0000000
            ****
            -F     0
            S   5   1.00
               2894.8325990             -0.53408255515E-02
                435.41939120            -0.39904258866E-01
                 98.843328866           -0.17912768038
                 27.485198001           -0.46758090825
                  8.5405498171          -0.44653131020
            S   1   1.00
                  1.0654578038           1.0000000
            S   1   1.00
                  0.33247346748          1.0000000
            P   3   1.00
                 22.696633924           -0.45212874436E-01
                  4.9872339257          -0.23754317067
                  1.3491613954          -0.51287353587
            P   1   1.00
                  0.34829881977          1.0000000
            D   1   1.00
                  1.4000000              1.0000000
            ****
            -S     0
            S   5   1.00
               9184.9303010             -0.22294387756E-02
               1381.5105503             -0.16683029937E-01
                313.87147580            -0.75262436116E-01
                 88.053870623           -0.19376827038
                 27.039914905           -0.17718020803
            S   3   1.00
                 45.648731303           -0.10736062573
                  4.9664522326           0.65066293018
                  2.0116242047           0.59712155354
            S   1   1.00
                  0.35661077013          1.0000000
            S   1   1.00
                  0.13507221477          1.0000000
            P   5   1.00
                261.98233439            -0.92729929822E-02
                 61.306894736           -0.66547669241E-01
                 19.103729887           -0.24828595903
                  6.6567720378          -0.48703847402
                  2.3959635161          -0.39337850312
            P   1   1.00
                  0.61776161679          1.0000000
            P   1   1.00
                  0.16993376871          1.0000000
            D   1   1.00
                  0.5500000              1.0000000
            D   1   1.00
                  2.9940000              1.0000000
            ****
            -Cl     0
            S   5   1.00
              10449.8275660              0.19708362484E-02
               1571.7365221              0.14754727977E-01
                357.12065523             0.66679112875E-01
                100.25185935             0.17228924084
                 30.812727554            0.15883786100
            S   3   1.00
                 51.923789434           -0.10009298909
                  5.7045760975           0.60841752753
                  2.3508376809           0.54352153355
            S   1   1.00
                  0.44605124672          1.0000000
            S   1   1.00
                  0.16848856190          1.0000000
            P   5   1.00
                307.66790569            -0.87801484118E-02
                 72.102015515           -0.63563355471E-01
                 22.532680262           -0.24016428276
                  7.8991765444          -0.47798866557
                  2.8767268321          -0.38515850005
            P   1   1.00
                  0.77459363955          1.0000000
            P   1   1.00
                  0.21037699698          1.0000000
            D   1   1.00
                  0.6500000              1.0000000
            D   1   1.00
                  3.6520000              1.0000000
            ****
            -Al     0
            S   5   1.00
               5887.5727030              0.13483347987E-02
                885.61225996             0.10071576809E-01
                201.13604899             0.45132454056E-01
                 56.284974674            0.11461268043
                 17.229551243            0.10159608943
            S   3   1.00
                 29.340249922            0.69347454208E-01
                  3.0439630420          -0.42528117679
                  1.1285539518          -0.41449832210
            S   1   1.00
                  0.14234175160          1.0000000
            S   1   1.00
                  0.54400192313E-01            1.0000000
            P   5   1.00
                145.11918809             0.63963373134E-02
                 33.717894833            0.44189359965E-01
                 10.369863083            0.15581575993
                  3.5135616036           0.28635286951
                  1.1980050273           0.22921423248
            P   1   1.00
                  0.26583005913          1.0000000
            P   1   1.00
                  0.71003361994E-01            1.0000000
            D   1   1.00
                  0.3000000              1.0000000
            D   1   1.00
                  1.1950000              1.0000000
            ****
            -Ti     0
            S   6   1.00
              42961.5121850              0.39127635355E-02
               6450.9759169              0.29969820489E-01
               1467.7210915              0.14836352707
                414.20997355             0.51347285324
                134.48715840             1.0335365483
                 46.122209796            0.77854233930
            S   3   1.00
                 89.447762543           -0.28385401259
                 10.223346060            1.6772785333
                  4.1353774271           1.2411928456
            S   3   1.00
                  6.7896181452          -0.78399994518E-02
                  1.1106730691           0.25495493019E-01
                  0.47565975578          0.16061172892E-01
            S   1   1.00
                  0.65986956934E-01            1.0000000
            S   1   1.00
                  0.25210342250E-01            1.0000000
            P   5   1.00
                522.03684782             0.19754179642E-01
                122.68649489             0.14460677619
                 38.572903611            0.54669004165
                 13.672169319            1.0531647540
                  5.0118529359           0.69111213363
            P   3   1.00
                  2.4131928282           0.75803437136
                  0.93252270050          1.3036241399
                  0.35429058390          0.53638653300
            P   1   1.00
                  0.1015610              1.0000000
            D   4   1.00
                 23.465125957            0.26536380115E-01
                  6.3332593832           0.13796453963
                  2.0766489946           0.35312644228
                  0.69027361954          0.48647124166
            D   1   1.00
                  0.21088738554          1.0000000
            ****
            -P     0
            S   5   1.00
               8002.4795106              0.57503489302E-02
               1203.6813590              0.43007628959E-01
                273.44227031             0.19363986252
                 76.655541517            0.49651693399
                 23.516927435            0.44983262479
            S   3   1.00
                 39.791683439            0.95188129789E-01
                  4.2770343323          -0.57649840368
                  1.6940256888          -0.54239583865
            S   1   1.00
                  0.27567674644          1.0000000
            S   1   1.00
                  0.10495590099          1.0000000
            P   5   1.00
                219.50755823             0.92100565257E-02
                 51.274155030            0.65409765745E-01
                 15.921595892            0.24033730279
                  5.5069913481           0.46318321788
                  1.9537719426           0.37392563382
            P   1   1.00
                  0.47803397932          1.0000000
            P   1   1.00
                  0.13657952621          1.0000000
            D   1   1.00
                  0.4500000              1.0000000
            D   1   1.00
                   2.5060000              1.0000000
            ****
 Initial command:
 /group/hpc-share/gaussian/2009D/g09/l1.exe "/scratch/gaussian/g_methanol.com-809496.hn1.marqnet.mu.edu/Gau-13746.inp" -scrdir="/scratch/gaussian/g_methanol.com-809496.hn1.marqnet.mu.edu/"
 Entering Link 1 = /group/hpc-share/gaussian/2009D/g09/l1.exe PID=     13750.
  
 Copyright (c) 1988,1990,1992,1993,1995,1998,2003,2009,2013,
            Gaussian, Inc.  All Rights Reserved.
  
 This is part of the Gaussian(R) 09 program.  It is based on
 the Gaussian(R) 03 system (copyright 2003, Gaussian, Inc.),
 the Gaussian(R) 98 system (copyright 1998, Gaussian, Inc.),
 the Gaussian(R) 94 system (copyright 1995, Gaussian, Inc.),
 the Gaussian 92(TM) system (copyright 1992, Gaussian, Inc.),
 the Gaussian 90(TM) system (copyright 1990, Gaussian, Inc.),
 the Gaussian 88(TM) system (copyright 1988, Gaussian, Inc.),
 the Gaussian 86(TM) system (copyright 1986, Carnegie Mellon
 University), and the Gaussian 82(TM) system (copyright 1983,
 Carnegie Mellon University). Gaussian is a federally registered
 trademark of Gaussian, Inc.
  
 This software contains proprietary and confidential information,
 including trade secrets, belonging to Gaussian, Inc.
  
 This software is provided under written license and may be
 used, copied, transmitted, or stored only in accord with that
 written license.
  
 The following legend is applicable only to US Government
 contracts under FAR:
  
                    RESTRICTED RIGHTS LEGEND
  
 Use, reproduction and disclosure by the US Government is
 subject to restrictions as set forth in subparagraphs (a)
 and (c) of the Commercial Computer Software - Restricted
 Rights clause in FAR 52.227-19.
  
 Gaussian, Inc.
 340 Quinnipiac St., Bldg. 40, Wallingford CT 06492
  
  
 ---------------------------------------------------------------
 Warning -- This program may not be used in any manner that
 competes with the business of Gaussian, Inc. or will provide
 assistance to any competitor of Gaussian, Inc.  The licensee
 of this program is prohibited from giving any competitor of
 Gaussian, Inc. access to this program.  By using this program,
 the user acknowledges that Gaussian, Inc. is engaged in the
 business of creating and licensing software in the field of
 computational chemistry and represents and warrants to the
 licensee that it is not a competitor of Gaussian, Inc. and that
 it will not use this program in any manner prohibited above.
 ---------------------------------------------------------------
  

 Cite this work as:
 Gaussian 09, Revision D.01,
 M. J. Frisch, G. W. Trucks, H. B. Schlegel, G. E. Scuseria, 
 M. A. Robb, J. R. Cheeseman, G. Scalmani, V. Barone, B. Mennucci, 
 G. A. Petersson, H. Nakatsuji, M. Caricato, X. Li, H. P. Hratchian, 
 A. F. Izmaylov, J. Bloino, G. Zheng, J. L. Sonnenberg, M. Hada, 
 M. Ehara, K. Toyota, R. Fukuda, J. Hasegawa, M. Ishida, T. Nakajima, 
 Y. Honda, O. Kitao, H. Nakai, T. Vreven, J. A. Montgomery, Jr., 
 J. E. Peralta, F. Ogliaro, M. Bearpark, J. J. Heyd, E. Brothers, 
 K. N. Kudin, V. N. Staroverov, T. Keith, R. Kobayashi, J. Normand, 
 K. Raghavachari, A. Rendell, J. C. Burant, S. S. Iyengar, J. Tomasi, 
 M. Cossi, N. Rega, J. M. Millam, M. Klene, J. E. Knox, J. B. Cross, 
 V. Bakken, C. Adamo, J. Jaramillo, R. Gomperts, R. E. Stratmann, 
 O. Yazyev, A. J. Austin, R. Cammi, C. Pomelli, J. W. Ochterski, 
 R. L. Martin, K. Morokuma, V. G. Zakrzewski, G. A. Voth, 
 P. Salvador, J. J. Dannenberg, S. Dapprich, A. D. Daniels, 
 O. Farkas, J. B. Foresman, J. V. Ortiz, J. Cioslowski, 
 and D. J. Fox, Gaussian, Inc., Wallingford CT, 2013.
 
 ******************************************
 Gaussian 09:  EM64L-G09RevD.01 24-Apr-2013
                 2-Sep-2015 
 ******************************************
 %nproc=8
 Will use up to    8 processors via shared memory.
 %chk=methanol.chk
 ------------------
 #P PBE1PBE/gen opt
 ------------------
 1/14=-1,18=20,19=15,26=3,38=1/1,3;
 2/9=110,12=2,17=6,18=5,40=1/2;
 3/5=7,11=2,16=1,25=1,30=1,71=1,74=-13/1,2,3;
 4//1;
 5/5=2,38=5/2;
 6/7=2,8=2,9=2,10=2,28=1/1;
 7//1,2,3,16;
 1/14=-1,18=20,19=15,26=3/3(2);
 2/9=110/2;
 99//99;
 2/9=110/2;
 3/5=7,6=1,11=2,16=1,25=1,30=1,71=1,74=-13,82=7/1,2,3;
 4/5=5,16=3,69=1/1;
 5/5=2,38=5/2;
 7//1,2,3,16;
 1/14=-1,18=20,19=15,26=3/3(-5);
 2/9=110/2;
 6/7=2,8=2,9=2,10=2,19=2,28=1/1;
 99/9=1/99;
 Leave Link    1 at Wed Sep  2 15:38:11 2015, MaxMem=           0 cpu:         0.4
 (Enter /group/hpc-share/gaussian/2009D/g09/l101.exe)
 --------
 methanol
 --------
 Symbolic Z-matrix:
 Charge =  0 Multiplicity = 1
 o
 h                    1    ho2
 c                    1    co3      2    coh3
 h                    3    hc4      1    hco4     2    dih4     0
 h                    3    hc5      1    hco5     4    dih5     0
 h                    3    hc6      1    hco6     4    dih6     0
       Variables:
  ho2                   0.95                     
  co3                   1.4                      
  coh3                109.471                    
  hc4                   1.089                    
  hco4                109.471                    
  dih4                180.                       
  hc5                   1.089                    
  hco5                109.471                    
  dih5                120.                       
  hc6                   1.089                    
  hco6                109.471                    
  dih6                240.                       
 
     4 tetrahedral angles replaced.
 NAtoms=      6 NQM=        6 NQMF=       0 NMMI=      0 NMMIF=      0
                NMic=       0 NMicF=      0.
                    Isotopes and Nuclear Properties:
 (Nuclear quadrupole moments (NQMom) in fm**2, nuclear magnetic moments (NMagM)
  in nuclear magnetons)

  Atom         1           2           3           4           5           6
 IAtWgt=          16           1          12           1           1           1
 AtmWgt=  15.9949146   1.0078250  12.0000000   1.0078250   1.0078250   1.0078250
 NucSpn=           0           1           0           1           1           1
 AtZEff=   0.0000000   0.0000000   0.0000000   0.0000000   0.0000000   0.0000000
 NQMom=    0.0000000   0.0000000   0.0000000   0.0000000   0.0000000   0.0000000
 NMagM=    0.0000000   2.7928460   0.0000000   2.7928460   2.7928460   2.7928460
 AtZNuc=   8.0000000   1.0000000   6.0000000   1.0000000   1.0000000   1.0000000
 Leave Link  101 at Wed Sep  2 15:38:12 2015, MaxMem=    33554432 cpu:         1.0
 (Enter /group/hpc-share/gaussian/2009D/g09/l103.exe)

 GradGradGradGradGradGradGradGradGradGradGradGradGradGradGradGradGradGrad
 Berny optimization.
 Initialization pass.
                           ----------------------------
                           !    Initial Parameters    !
                           ! (Angstroms and Degrees)  !
 --------------------------                            --------------------------
 ! Name  Definition              Value          Derivative Info.                !
 --------------------------------------------------------------------------------
 ! R1    R(1,2)                  0.95           estimate D2E/DX2                !
 ! R2    R(1,3)                  1.4            estimate D2E/DX2                !
 ! R3    R(3,4)                  1.089          estimate D2E/DX2                !
 ! R4    R(3,5)                  1.089          estimate D2E/DX2                !
 ! R5    R(3,6)                  1.089          estimate D2E/DX2                !
 ! A1    A(2,1,3)              109.4712         estimate D2E/DX2                !
 ! A2    A(1,3,4)              109.4712         estimate D2E/DX2                !
 ! A3    A(1,3,5)              109.4712         estimate D2E/DX2                !
 ! A4    A(1,3,6)              109.4712         estimate D2E/DX2                !
 ! A5    A(4,3,5)              109.4712         estimate D2E/DX2                !
 ! A6    A(4,3,6)              109.4712         estimate D2E/DX2                !
 ! A7    A(5,3,6)              109.4712         estimate D2E/DX2                !
 ! D1    D(2,1,3,4)            180.0            estimate D2E/DX2                !
 ! D2    D(2,1,3,5)            -60.0            estimate D2E/DX2                !
 ! D3    D(2,1,3,6)             60.0            estimate D2E/DX2                !
 --------------------------------------------------------------------------------
 Trust Radius=3.00D-01 FncErr=1.00D-07 GrdErr=1.00D-06
 Number of steps in this run=     25 maximum allowed number of steps=    100.
 GradGradGradGradGradGradGradGradGradGradGradGradGradGradGradGradGradGrad

 Leave Link  103 at Wed Sep  2 15:38:12 2015, MaxMem=    33554432 cpu:         0.1
 (Enter /group/hpc-share/gaussian/2009D/g09/l202.exe)
                          Input orientation:                          
 ---------------------------------------------------------------------
 Center     Atomic      Atomic             Coordinates (Angstroms)
 Number     Number       Type             X           Y           Z
 ---------------------------------------------------------------------
      1          8           0        0.000000    0.000000    0.000000
      2          1           0        0.000000    0.000000    0.950000
      3          6           0        1.319933    0.000000   -0.466667
      4          1           0        1.319933    0.000000   -1.555667
      5          1           0        1.833292    0.889165   -0.103667
      6          1           0        1.833292   -0.889165   -0.103667
 ---------------------------------------------------------------------
                    Distance matrix (angstroms):
                    1          2          3          4          5
     1  O    0.000000
     2  H    0.950000   0.000000
     3  C    1.400000   1.936276   0.000000
     4  H    2.040177   2.832064   1.089000   0.000000
     5  H    2.040177   2.293859   1.089000   1.778330   0.000000
     6  H    2.040177   2.293859   1.089000   1.778330   1.778330
                    6
     6  H    0.000000
 Stoichiometry    CH4O
 Framework group  CS[SG(CH2O),X(H2)]
 Deg. of freedom     8
 Full point group                 CS      NOp   2
 Largest Abelian subgroup         CS      NOp   2
 Largest concise Abelian subgroup CS      NOp   2
                         Standard orientation:                         
 ---------------------------------------------------------------------
 Center     Atomic      Atomic             Coordinates (Angstroms)
 Number     Number       Type             X           Y           Z
 ---------------------------------------------------------------------
      1          8           0       -0.049759   -0.742907    0.000000
      2          1           0        0.845909   -1.059574    0.000000
      3          6           0       -0.049759    0.657093    0.000000
      4          1           0       -1.076478    1.020093    0.000000
      5          1           0        0.463600    1.020093    0.889165
      6          1           0        0.463600    1.020093   -0.889165
 ---------------------------------------------------------------------
 Rotational constants (GHZ):    128.9544830     25.5126691     24.6036790
 Leave Link  202 at Wed Sep  2 15:38:12 2015, MaxMem=    33554432 cpu:         0.0
 (Enter /group/hpc-share/gaussian/2009D/g09/l301.exe)
 General basis read from cards:  (5D, 7F)
 Centers:       2      4      5      6
 S 3 1.00
     Exponent=  1.3010701000D+01 Coefficients=  1.9682158000D-02
     Exponent=  1.9622572000D+00 Coefficients=  1.3796524000D-01
     Exponent=  4.4453796000D-01 Coefficients=  4.7831935000D-01
 S 1 1.00
     Exponent=  1.2194962000D-01 Coefficients=  1.0000000000D+00
 ****
 Centers:       3
 S 5 1.00
     Exponent=  1.2384016938D+03 Coefficients=  5.4568832082D-03
     Exponent=  1.8629004992D+02 Coefficients=  4.0638409211D-02
     Exponent=  4.2251176346D+01 Coefficients=  1.8025593888D-01
     Exponent=  1.1676557932D+01 Coefficients=  4.6315121755D-01
     Exponent=  3.5930506482D+00 Coefficients=  4.4087173314D-01
 S 1 1.00
     Exponent=  4.0245147363D-01 Coefficients=  1.0000000000D+00
 S 1 1.00
     Exponent=  1.3090182668D-01 Coefficients=  1.0000000000D+00
 P 3 1.00
     Exponent=  9.4680970621D+00 Coefficients=  3.8387871728D-02
     Exponent=  2.0103545142D+00 Coefficients=  2.1117025112D-01
     Exponent=  5.4771004707D-01 Coefficients=  5.1328172114D-01
 P 1 1.00
     Exponent=  1.5268613795D-01 Coefficients=  1.0000000000D+00
 D 1 1.00
     Exponent=  8.0000000000D-01 Coefficients=  1.0000000000D+00
 ****
 Centers:       1
 S 5 1.00
     Exponent=  2.2661767785D+03 Coefficients= -5.3431809926D-03
     Exponent=  3.4087010191D+02 Coefficients= -3.9890039230D-02
     Exponent=  7.7363135167D+01 Coefficients= -1.7853911985D-01
     Exponent=  2.1479644940D+01 Coefficients= -4.6427684959D-01
     Exponent=  6.6589433124D+00 Coefficients= -4.4309745172D-01
 S 1 1.00
     Exponent=  8.0975975668D-01 Coefficients=  1.0000000000D+00
 S 1 1.00
     Exponent=  2.5530772234D-01 Coefficients=  1.0000000000D+00
 P 3 1.00
     Exponent=  1.7721504317D+01 Coefficients=  4.3394573193D-02
     Exponent=  3.8635505440D+00 Coefficients=  2.3094120765D-01
     Exponent=  1.0480920883D+00 Coefficients=  5.1375311064D-01
 P 1 1.00
     Exponent=  2.7641544411D-01 Coefficients=  1.0000000000D+00
 D 1 1.00
     Exponent=  1.2000000000D+00 Coefficients=  1.0000000000D+00
 ****
 Ernie: Thresh=  0.10000D-02 Tol=  0.10000D-05 Strict=F.
 There are    28 symmetry adapted cartesian basis functions of A'  symmetry.
 There are    10 symmetry adapted cartesian basis functions of A"  symmetry.
 There are    26 symmetry adapted basis functions of A'  symmetry.
 There are    10 symmetry adapted basis functions of A"  symmetry.
    36 basis functions,    66 primitive gaussians,    38 cartesian basis functions
     9 alpha electrons        9 beta electrons
       nuclear repulsion energy        40.7519788861 Hartrees.
 IExCor= 1009 DFT=T Ex+Corr=PBE1PBE ExCW=0 ScaHFX=  0.250000
 ScaDFX=  0.750000  0.750000  1.000000  1.000000 ScalE2=  1.000000  1.000000
 IRadAn=      0 IRanWt=     -1 IRanGd=            0 ICorTp=0 IEmpDi=  4
 NAtoms=    6 NActive=    6 NUniq=    5 SFac= 1.44D+00 NAtFMM=   60 NAOKFM=F Big=F
 Integral buffers will be    131072 words long.
 Raffenetti 2 integral format.
 Two-electron integral symmetry is turned on.
 Leave Link  301 at Wed Sep  2 15:38:12 2015, MaxMem=    33554432 cpu:         1.7
 (Enter /group/hpc-share/gaussian/2009D/g09/l302.exe)
 NPDir=0 NMtPBC=     1 NCelOv=     1 NCel=       1 NClECP=     1 NCelD=      1
         NCelK=      1 NCelE2=     1 NClLst=     1 CellRange=     0.0.
 One-electron integrals computed using PRISM.
 One-electron integral symmetry used in STVInt
 NBasis=    36 RedAO= T EigKep=  1.51D-02  NBF=    26    10
 NBsUse=    36 1.00D-06 EigRej= -1.00D+00 NBFU=    26    10
 Precomputing XC quadrature grid using
 IXCGrd= 4 IRadAn=           0 IRanWt=          -1 IRanGd=           0 AccXCQ= 0.00D+00.
 Generated NRdTot=       0 NPtTot=           0 NUsed=           0 NTot=          32
 NSgBfM=    38    38    38    38    38 MxSgAt=     6 MxSgA2=     6.
 Leave Link  302 at Wed Sep  2 15:38:12 2015, MaxMem=    33554432 cpu:         1.3
 (Enter /group/hpc-share/gaussian/2009D/g09/l303.exe)
 DipDrv:  MaxL=1.
 Leave Link  303 at Wed Sep  2 15:38:12 2015, MaxMem=    33554432 cpu:         0.3
 (Enter /group/hpc-share/gaussian/2009D/g09/l401.exe)
 ExpMin= 1.22D-01 ExpMax= 2.27D+03 ExpMxC= 3.41D+02 IAcc=1 IRadAn=         1 AccDes= 0.00D+00
 Harris functional with IExCor= 1009 and IRadAn=       1 diagonalized for initial guess.
 HarFok:  IExCor= 1009 AccDes= 0.00D+00 IRadAn=         1 IDoV= 1 UseB2=F ITyADJ=14
 ICtDFT=  3500011 ScaDFX=  1.000000  1.000000  1.000000  1.000000
 FoFCou: FMM=F IPFlag=           0 FMFlag=      100000 FMFlg1=           0
         NFxFlg=           0 DoJE=T BraDBF=F KetDBF=T FulRan=T
         wScrn=  0.000000 ICntrl=     500 IOpCl=  0 I1Cent=   200000004 NGrid=           0
         NMat0=    1 NMatS0=      1 NMatT0=    0 NMatD0=    1 NMtDS0=    0 NMtDT0=    0
 Petite list used in FoFCou.
 Harris En= -115.532942725878    
 JPrj=0 DoOrth=F DoCkMO=F.
 Initial guess orbital symmetries:
       Occupied  (A') (A') (A') (A') (A') (A") (A') (A') (A")
       Virtual   (A') (A') (A') (A") (A') (A') (A") (A') (A') (A')
                 (A") (A') (A') (A') (A") (A') (A') (A") (A') (A')
                 (A") (A') (A") (A') (A") (A') (A')
 The electronic state of the initial guess is 1-A'.
 Leave Link  401 at Wed Sep  2 15:38:13 2015, MaxMem=    33554432 cpu:         1.4
 (Enter /group/hpc-share/gaussian/2009D/g09/l502.exe)
 Closed shell SCF:
 Using DIIS extrapolation, IDIIS=  1040.
 Integral symmetry usage will be decided dynamically.
 Keep R1 ints in memory in symmetry-blocked form, NReq=1107995.
 IVT=       23542 IEndB=       23542 NGot=    33554432 MDV=    33412564
 LenX=    33412564 LenY=    33410679
 Requested convergence on RMS density matrix=1.00D-08 within 128 cycles.
 Requested convergence on MAX density matrix=1.00D-06.
 Requested convergence on             energy=1.00D-06.
 No special actions if energy rises.
 FoFCou: FMM=F IPFlag=           0 FMFlag=           0 FMFlg1=           0
         NFxFlg=           0 DoJE=F BraDBF=F KetDBF=F FulRan=T
         wScrn=  0.000000 ICntrl=     600 IOpCl=  0 I1Cent=           0 NGrid=           0
         NMat0=    1 NMatS0=    666 NMatT0=    0 NMatD0=    1 NMtDS0=    0 NMtDT0=    0
 Petite list used in FoFCou.
 Integral accuracy reduced to 1.0D-05 until final iterations.

 Cycle   1  Pass 0  IDiag  1:
 E= -115.408809512655    
 DIIS: error= 4.85D-02 at cycle   1 NSaved=   1.
 NSaved= 1 IEnMin= 1 EnMin= -115.408809512655     IErMin= 1 ErrMin= 4.85D-02
 ErrMax= 4.85D-02  0.00D+00 EMaxC= 1.00D-01 BMatC= 7.81D-02 BMatP= 7.81D-02
 IDIUse=3 WtCom= 5.15D-01 WtEn= 4.85D-01
 Coeff-Com:  0.100D+01
 Coeff-En:   0.100D+01
 Coeff:      0.100D+01
 Gap=     0.271 Goal=   None    Shift=    0.000
 GapD=    0.271 DampG=1.000 DampE=0.500 DampFc=0.5000 IDamp=-1.
 Damping current iteration by 5.00D-01
 RMSDP=1.44D-02 MaxDP=1.26D-01              OVMax= 1.28D-01

 Cycle   2  Pass 0  IDiag  1:
 E= -115.440789773748     Delta-E=       -0.031980261093 Rises=F Damp=T
 DIIS: error= 8.63D-03 at cycle   2 NSaved=   2.
 NSaved= 2 IEnMin= 2 EnMin= -115.440789773748     IErMin= 2 ErrMin= 8.63D-03
 ErrMax= 8.63D-03  0.00D+00 EMaxC= 1.00D-01 BMatC= 2.98D-03 BMatP= 7.81D-02
 IDIUse=3 WtCom= 9.14D-01 WtEn= 8.63D-02
 Coeff-Com:  0.774D-01 0.923D+00
 Coeff-En:   0.103D+00 0.897D+00
 Coeff:      0.796D-01 0.920D+00
 Gap=     0.348 Goal=   None    Shift=    0.000
 RMSDP=2.06D-03 MaxDP=1.44D-02 DE=-3.20D-02 OVMax= 7.23D-02

 Cycle   3  Pass 0  IDiag  1:
 E= -115.478843491449     Delta-E=       -0.038053717701 Rises=F Damp=F
 DIIS: error= 3.61D-03 at cycle   3 NSaved=   3.
 NSaved= 3 IEnMin= 3 EnMin= -115.478843491449     IErMin= 3 ErrMin= 3.61D-03
 ErrMax= 3.61D-03  0.00D+00 EMaxC= 1.00D-01 BMatC= 8.50D-04 BMatP= 2.98D-03
 IDIUse=3 WtCom= 9.64D-01 WtEn= 3.61D-02
 Coeff-Com:  0.744D-02 0.320D+00 0.673D+00
 Coeff-En:   0.000D+00 0.000D+00 0.100D+01
 Coeff:      0.717D-02 0.308D+00 0.684D+00
 Gap=     0.342 Goal=   None    Shift=    0.000
 RMSDP=7.86D-04 MaxDP=9.87D-03 DE=-3.81D-02 OVMax= 9.23D-03

 Cycle   4  Pass 0  IDiag  1:
 E= -115.479380626763     Delta-E=       -0.000537135315 Rises=F Damp=F
 DIIS: error= 1.64D-03 at cycle   4 NSaved=   4.
 NSaved= 4 IEnMin= 4 EnMin= -115.479380626763     IErMin= 4 ErrMin= 1.64D-03
 ErrMax= 1.64D-03  0.00D+00 EMaxC= 1.00D-01 BMatC= 1.87D-04 BMatP= 8.50D-04
 IDIUse=3 WtCom= 9.84D-01 WtEn= 1.64D-02
 Coeff-Com:  0.117D-04 0.647D-01 0.333D+00 0.602D+00
 Coeff-En:   0.000D+00 0.000D+00 0.155D+00 0.845D+00
 Coeff:      0.115D-04 0.636D-01 0.331D+00 0.606D+00
 Gap=     0.343 Goal=   None    Shift=    0.000
 RMSDP=2.94D-04 MaxDP=3.83D-03 DE=-5.37D-04 OVMax= 3.50D-03

 Cycle   5  Pass 0  IDiag  1:
 E= -115.479537710427     Delta-E=       -0.000157083663 Rises=F Damp=F
 DIIS: error= 2.13D-04 at cycle   5 NSaved=   5.
 NSaved= 5 IEnMin= 5 EnMin= -115.479537710427     IErMin= 5 ErrMin= 2.13D-04
 ErrMax= 2.13D-04  0.00D+00 EMaxC= 1.00D-01 BMatC= 2.37D-06 BMatP= 1.87D-04
 IDIUse=3 WtCom= 9.98D-01 WtEn= 2.13D-03
 Coeff-Com:  0.180D-03-0.342D-02 0.415D-01 0.152D+00 0.809D+00
 Coeff-En:   0.000D+00 0.000D+00 0.000D+00 0.000D+00 0.100D+01
 Coeff:      0.180D-03-0.342D-02 0.414D-01 0.152D+00 0.810D+00
 Gap=     0.343 Goal=   None    Shift=    0.000
 RMSDP=3.10D-05 MaxDP=4.01D-04 DE=-1.57D-04 OVMax= 3.51D-04

 Cycle   6  Pass 0  IDiag  1:
 E= -115.479539586860     Delta-E=       -0.000001876433 Rises=F Damp=F
 DIIS: error= 8.17D-06 at cycle   6 NSaved=   6.
 NSaved= 6 IEnMin= 6 EnMin= -115.479539586860     IErMin= 6 ErrMin= 8.17D-06
 ErrMax= 8.17D-06  0.00D+00 EMaxC= 1.00D-01 BMatC= 2.78D-09 BMatP= 2.37D-06
 IDIUse=1 WtCom= 1.00D+00 WtEn= 0.00D+00
 Coeff-Com:  0.109D-03-0.532D-03 0.169D-03 0.309D-02 0.291D-01 0.968D+00
 Coeff:      0.109D-03-0.532D-03 0.169D-03 0.309D-02 0.291D-01 0.968D+00
 Gap=     0.343 Goal=   None    Shift=    0.000
 RMSDP=2.81D-06 MaxDP=2.31D-05 DE=-1.88D-06 OVMax= 2.92D-05

 Initial convergence to 1.0D-05 achieved.  Increase integral accuracy.
 Cycle   7  Pass 1  IDiag  1:
 E= -115.479550706292     Delta-E=       -0.000011119432 Rises=F Damp=F
 DIIS: error= 3.15D-06 at cycle   1 NSaved=   1.
 NSaved= 1 IEnMin= 1 EnMin= -115.479550706292     IErMin= 1 ErrMin= 3.15D-06
 ErrMax= 3.15D-06  0.00D+00 EMaxC= 1.00D-01 BMatC= 6.49D-10 BMatP= 6.49D-10
 IDIUse=1 WtCom= 1.00D+00 WtEn= 0.00D+00
 Coeff-Com:  0.100D+01
 Coeff:      0.100D+01
 Gap=     0.343 Goal=   None    Shift=    0.000
 RMSDP=2.81D-06 MaxDP=2.31D-05 DE=-1.11D-05 OVMax= 1.56D-05

 Cycle   8  Pass 1  IDiag  1:
 E= -115.479550707260     Delta-E=       -0.000000000968 Rises=F Damp=F
 DIIS: error= 1.25D-06 at cycle   2 NSaved=   2.
 NSaved= 2 IEnMin= 2 EnMin= -115.479550707260     IErMin= 2 ErrMin= 1.25D-06
 ErrMax= 1.25D-06  0.00D+00 EMaxC= 1.00D-01 BMatC= 8.39D-11 BMatP= 6.49D-10
 IDIUse=1 WtCom= 1.00D+00 WtEn= 0.00D+00
 Coeff-Com:  0.179D+00 0.821D+00
 Coeff:      0.179D+00 0.821D+00
 Gap=     0.343 Goal=   None    Shift=    0.000
 RMSDP=3.74D-07 MaxDP=2.96D-06 DE=-9.68D-10 OVMax= 3.83D-06

 Cycle   9  Pass 1  IDiag  1:
 E= -115.479550707298     Delta-E=       -0.000000000038 Rises=F Damp=F
 DIIS: error= 9.65D-07 at cycle   3 NSaved=   3.
 NSaved= 3 IEnMin= 3 EnMin= -115.479550707298     IErMin= 3 ErrMin= 9.65D-07
 ErrMax= 9.65D-07  0.00D+00 EMaxC= 1.00D-01 BMatC= 5.20D-11 BMatP= 8.39D-11
 IDIUse=1 WtCom= 1.00D+00 WtEn= 0.00D+00
 Coeff-Com:  0.138D-01 0.436D+00 0.550D+00
 Coeff:      0.138D-01 0.436D+00 0.550D+00
 Gap=     0.343 Goal=   None    Shift=    0.000
 RMSDP=1.53D-07 MaxDP=1.66D-06 DE=-3.77D-11 OVMax= 1.59D-06

 Cycle  10  Pass 1  IDiag  1:
 E= -115.479550707335     Delta-E=       -0.000000000037 Rises=F Damp=F
 DIIS: error= 1.39D-07 at cycle   4 NSaved=   4.
 NSaved= 4 IEnMin= 4 EnMin= -115.479550707335     IErMin= 4 ErrMin= 1.39D-07
 ErrMax= 1.39D-07  0.00D+00 EMaxC= 1.00D-01 BMatC= 1.45D-12 BMatP= 5.20D-11
 IDIUse=1 WtCom= 1.00D+00 WtEn= 0.00D+00
 Coeff-Com: -0.994D-02 0.776D-01 0.192D+00 0.740D+00
 Coeff:     -0.994D-02 0.776D-01 0.192D+00 0.740D+00
 Gap=     0.343 Goal=   None    Shift=    0.000
 RMSDP=2.87D-08 MaxDP=2.38D-07 DE=-3.67D-11 OVMax= 2.64D-07

 Cycle  11  Pass 1  IDiag  1:
 E= -115.479550707336     Delta-E=       -0.000000000001 Rises=F Damp=F
 DIIS: error= 1.14D-08 at cycle   5 NSaved=   5.
 NSaved= 5 IEnMin= 5 EnMin= -115.479550707336     IErMin= 5 ErrMin= 1.14D-08
 ErrMax= 1.14D-08  0.00D+00 EMaxC= 1.00D-01 BMatC= 4.30D-15 BMatP= 1.45D-12
 IDIUse=1 WtCom= 1.00D+00 WtEn= 0.00D+00
 Coeff-Com: -0.182D-02 0.612D-02 0.196D-01 0.927D-01 0.883D+00
 Coeff:     -0.182D-02 0.612D-02 0.196D-01 0.927D-01 0.883D+00
 Gap=     0.343 Goal=   None    Shift=    0.000
 RMSDP=2.66D-09 MaxDP=1.57D-08 DE=-1.17D-12 OVMax= 3.19D-08

 SCF Done:  E(RPBE1PBE) =  -115.479550707     A.U. after   11 cycles
            NFock= 11  Conv=0.27D-08     -V/T= 2.0062
 KE= 1.147688628560D+02 PE=-3.524776267781D+02 EE= 8.147723432859D+01
 Leave Link  502 at Wed Sep  2 15:38:13 2015, MaxMem=    33554432 cpu:         2.1
 (Enter /group/hpc-share/gaussian/2009D/g09/l601.exe)
 Copying SCF densities to generalized density rwf, IOpCl= 0 IROHF=0.

 **********************************************************************

            Population analysis using the SCF density.

 **********************************************************************

 Orbital symmetries:
       Occupied  (A') (A') (A') (A') (A') (A") (A') (A') (A")
       Virtual   (A') (A') (A") (A') (A') (A') (A") (A') (A') (A')
                 (A") (A') (A') (A') (A") (A') (A') (A") (A') (A')
                 (A") (A') (A") (A') (A") (A') (A')
 The electronic state is 1-A'.
 Alpha  occ. eigenvalues --  -19.18978 -10.25980  -1.03341  -0.69457  -0.52206
 Alpha  occ. eigenvalues --   -0.45578  -0.44207  -0.33725  -0.27576
 Alpha virt. eigenvalues --    0.06740   0.11283   0.15112   0.15379   0.21012
 Alpha virt. eigenvalues --    0.48265   0.48829   0.51538   0.63806   0.69273
 Alpha virt. eigenvalues --    0.71448   0.74379   0.74881   1.01828   1.02605
 Alpha virt. eigenvalues --    1.14082   1.45177   1.62903   1.74324   2.09083
 Alpha virt. eigenvalues --    2.10330   2.10624   2.62933   2.83886   2.91701
 Alpha virt. eigenvalues --    3.03565   3.36513
          Condensed to atoms (all electrons):
               1          2          3          4          5          6
     1  O    8.016058   0.274595   0.313035  -0.029210  -0.034303  -0.034303
     2  H    0.274595   0.450771  -0.034173   0.007929  -0.005366  -0.005366
     3  C    0.313035  -0.034173   4.693040   0.390227   0.390588   0.390588
     4  H   -0.029210   0.007929   0.390227   0.558400  -0.029317  -0.029317
     5  H   -0.034303  -0.005366   0.390588  -0.029317   0.615781  -0.040522
     6  H   -0.034303  -0.005366   0.390588  -0.029317  -0.040522   0.615781
 Mulliken charges:
               1
     1  O   -0.505872
     2  H    0.311610
     3  C   -0.143306
     4  H    0.131289
     5  H    0.103139
     6  H    0.103139
 Sum of Mulliken charges =   0.00000
 Mulliken charges with hydrogens summed into heavy atoms:
               1
     1  O   -0.194262
     3  C    0.194262
 Electronic spatial extent (au):  <R**2>=             82.5163
 Charge=              0.0000 electrons
 Dipole moment (field-independent basis, Debye):
    X=              1.4997    Y=              0.8951    Z=              0.0000  Tot=              1.7465
 Quadrupole moment (field-independent basis, Debye-Ang):
   XX=            -11.5807   YY=            -13.0727   ZZ=            -13.4669
   XY=             -2.2238   XZ=              0.0000   YZ=              0.0000
 Traceless Quadrupole moment (field-independent basis, Debye-Ang):
   XX=              1.1260   YY=             -0.3660   ZZ=             -0.7601
   XY=             -2.2238   XZ=              0.0000   YZ=              0.0000
 Octapole moment (field-independent basis, Debye-Ang**2):
  XXX=              1.1267  YYY=             -3.9982  ZZZ=              0.0000  XYY=              2.1568
  XXY=             -2.0711  XXZ=              0.0000  XZZ=              0.6260  YZZ=             -0.6688
  YYZ=              0.0000  XYZ=              0.0000
 Hexadecapole moment (field-independent basis, Debye-Ang**3):
 XXXX=            -18.3056 YYYY=            -58.7450 ZZZZ=            -18.5882 XXXY=             -0.8728
 XXXZ=              0.0000 YYYX=             -1.4662 YYYZ=              0.0000 ZZZX=              0.0000
 ZZZY=              0.0000 XXYY=            -11.6351 XXZZ=             -6.4124 YYZZ=            -13.3312
 XXYZ=              0.0000 YYXZ=              0.0000 ZZXY=              0.6819
 N-N= 4.075197888612D+01 E-N=-3.524776265301D+02  KE= 1.147688628560D+02
 Symmetry A'   KE= 1.081033888354D+02
 Symmetry A"   KE= 6.665474020665D+00
 No NMR shielding tensors so no spin-rotation constants.
 Leave Link  601 at Wed Sep  2 15:38:13 2015, MaxMem=    33554432 cpu:         1.0
 (Enter /group/hpc-share/gaussian/2009D/g09/l701.exe)
 Compute integral first derivatives.
 ... and contract with generalized density number  0.
 Leave Link  701 at Wed Sep  2 15:38:13 2015, MaxMem=    33554432 cpu:         1.1
 (Enter /group/hpc-share/gaussian/2009D/g09/l702.exe)
 L702 exits ... SP integral derivatives will be done elsewhere.
 Leave Link  702 at Wed Sep  2 15:38:13 2015, MaxMem=    33554432 cpu:         0.2
 (Enter /group/hpc-share/gaussian/2009D/g09/l703.exe)
 Compute integral first derivatives, UseDBF=F ICtDFT=           0.
 Integral derivatives from FoFJK, PRISM(SPDF).
 Calling FoFJK, ICntrl=      2127 FMM=F ISym2X=1 I1Cent= 0 IOpClX= 0 NMat=1 NMatS=1 NMatT=0.
 FoFJK:  IHMeth= 1 ICntrl=    2127 DoSepK=F KAlg= 0 I1Cent=   0 FoldK=F
 IRaf=         0 NMat=   1 IRICut=       1 DoRegI=T DoRafI=F ISym2E= 1.
 FoFCou: FMM=F IPFlag=           0 FMFlag=      100000 FMFlg1=         800
         NFxFlg=           0 DoJE=F BraDBF=F KetDBF=F FulRan=T
         wScrn=  0.000000 ICntrl=    2127 IOpCl=  0 I1Cent=           0 NGrid=           0
         NMat0=    1 NMatS0=      1 NMatT0=    0 NMatD0=    1 NMtDS0=    0 NMtDT0=    0
 Petite list used in FoFCou.
 Leave Link  703 at Wed Sep  2 15:38:14 2015, MaxMem=    33554432 cpu:         1.5
 (Enter /group/hpc-share/gaussian/2009D/g09/l716.exe)
 Dipole        = 5.90021985D-01 3.52162701D-01 0.00000000D+00
 ***** Axes restored to original set *****
 -------------------------------------------------------------------
 Center     Atomic                   Forces (Hartrees/Bohr)
 Number     Number              X              Y              Z
 -------------------------------------------------------------------
      1        8          -0.009968172    0.000000000   -0.023378663
      2        1           0.001894446    0.000000000    0.016094991
      3        6          -0.015104612    0.000000000    0.015517177
      4        1          -0.002122913    0.000000000   -0.008032703
      5        1           0.012650626    0.009804679   -0.000100401
      6        1           0.012650626   -0.009804679   -0.000100401
 -------------------------------------------------------------------
 Cartesian Forces:  Max     0.023378663 RMS     0.010432022
 Leave Link  716 at Wed Sep  2 15:38:14 2015, MaxMem=    33554432 cpu:         0.1
 (Enter /group/hpc-share/gaussian/2009D/g09/l103.exe)

 GradGradGradGradGradGradGradGradGradGradGradGradGradGradGradGradGradGrad
 Berny optimization.
 FormGI is forming the generalized inverse of G from B-inverse, IUseBI=4.
 Internal  Forces:  Max     0.016092340 RMS     0.008804442
 Search for a local minimum.
 Step number   1 out of a maximum of   25
 All quantities printed in internal units (Hartrees-Bohrs-Radians)
 RMS Force = .88044D-02 SwitMx=.10000D-02 MixMth= 1
 Mixed Optimization -- RFO/linear search
 Second derivative matrix not updated -- first step.
 The second derivative matrix:
                          R1        R2        R3        R4        R5
           R1           0.57681
           R2           0.00000   0.45621
           R3           0.00000   0.00000   0.34928
           R4           0.00000   0.00000   0.00000   0.34928
           R5           0.00000   0.00000   0.00000   0.00000   0.34928
           A1           0.00000   0.00000   0.00000   0.00000   0.00000
           A2           0.00000   0.00000   0.00000   0.00000   0.00000
           A3           0.00000   0.00000   0.00000   0.00000   0.00000
           A4           0.00000   0.00000   0.00000   0.00000   0.00000
           A5           0.00000   0.00000   0.00000   0.00000   0.00000
           A6           0.00000   0.00000   0.00000   0.00000   0.00000
           A7           0.00000   0.00000   0.00000   0.00000   0.00000
           D1           0.00000   0.00000   0.00000   0.00000   0.00000
           D2           0.00000   0.00000   0.00000   0.00000   0.00000
           D3           0.00000   0.00000   0.00000   0.00000   0.00000
                          A1        A2        A3        A4        A5
           A1           0.16000
           A2           0.00000   0.16000
           A3           0.00000   0.00000   0.16000
           A4           0.00000   0.00000   0.00000   0.16000
           A5           0.00000   0.00000   0.00000   0.00000   0.16000
           A6           0.00000   0.00000   0.00000   0.00000   0.00000
           A7           0.00000   0.00000   0.00000   0.00000   0.00000
           D1           0.00000   0.00000   0.00000   0.00000   0.00000
           D2           0.00000   0.00000   0.00000   0.00000   0.00000
           D3           0.00000   0.00000   0.00000   0.00000   0.00000
                          A6        A7        D1        D2        D3
           A6           0.16000
           A7           0.00000   0.16000
           D1           0.00000   0.00000   0.01692
           D2           0.00000   0.00000   0.00000   0.01692
           D3           0.00000   0.00000   0.00000   0.00000   0.01692
 ITU=  0
     Eigenvalues ---    0.01692   0.10497   0.10497   0.16000   0.16000
     Eigenvalues ---    0.16000   0.16000   0.34928   0.34928   0.34928
     Eigenvalues ---    0.45621   0.57681
 RFO step:  Lambda=-4.55997486D-03 EMin= 1.69178031D-02
 Linear search not attempted -- first point.
 Iteration  1 RMS(Cart)=  0.04745466 RMS(Int)=  0.00204763
 Iteration  2 RMS(Cart)=  0.00121153 RMS(Int)=  0.00153965
 Iteration  3 RMS(Cart)=  0.00000366 RMS(Int)=  0.00153965
 Iteration  4 RMS(Cart)=  0.00000002 RMS(Int)=  0.00153965
 ITry= 1 IFail=0 DXMaxC= 9.11D-02 DCOld= 1.00D+10 DXMaxT= 3.00D-01 DXLimC= 3.00D+00 Rises=F
 ClnCor:  largest displacement from symmetrization is 5.84D-13 for atom     6.
 Variable       Old X    -DE/DX   Delta X   Delta X   Delta X     New X
                                 (Linear)    (Quad)   (Total)
    R1        1.79524   0.01609   0.00000   0.02768   0.02768   1.82292
    R2        2.64562   0.00519   0.00000   0.01125   0.01125   2.65687
    R3        2.05791   0.00803   0.00000   0.02270   0.02270   2.08061
    R4        2.05791   0.01394   0.00000   0.03938   0.03938   2.09730
    R5        2.05791   0.01394   0.00000   0.03938   0.03938   2.09730
    A1        1.91063  -0.00340   0.00000  -0.02064  -0.02064   1.89000
    A2        1.91063  -0.00856   0.00000  -0.05911  -0.05856   1.85208
    A3        1.91063   0.01117   0.00000   0.07144   0.06965   1.98028
    A4        1.91063   0.01117   0.00000   0.07144   0.06965   1.98028
    A5        1.91063  -0.00420   0.00000  -0.03260  -0.03208   1.87855
    A6        1.91063  -0.00420   0.00000  -0.03260  -0.03208   1.87855
    A7        1.91063  -0.00538   0.00000  -0.01856  -0.02194   1.88869
    D1        3.14159   0.00000   0.00000   0.00000   0.00000   3.14159
    D2       -1.04720  -0.00355   0.00000  -0.03238  -0.03529  -1.08248
    D3        1.04720   0.00355   0.00000   0.03238   0.03529   1.08248
         Item               Value     Threshold  Converged?
 Maximum Force            0.016092     0.000450     NO 
 RMS     Force            0.008804     0.000300     NO 
 Maximum Displacement     0.091070     0.001800     NO 
 RMS     Displacement     0.047254     0.001200     NO 
 Predicted change in Energy=-2.359309D-03
 Lowest energy point so far.  Saving SCF results.
 GradGradGradGradGradGradGradGradGradGradGradGradGradGradGradGradGradGrad

 Leave Link  103 at Wed Sep  2 15:38:14 2015, MaxMem=    33554432 cpu:         0.1
 (Enter /group/hpc-share/gaussian/2009D/g09/l202.exe)
                          Input orientation:                          
 ---------------------------------------------------------------------
 Center     Atomic      Atomic             Coordinates (Angstroms)
 Number     Number       Type             X           Y           Z
 ---------------------------------------------------------------------
      1          8           0       -0.024327    0.000000   -0.015072
      2          1           0       -0.036522    0.000000    0.949498
      3          6           0        1.316080    0.000000   -0.439361
      4          1           0        1.288249    0.000000   -1.540021
      5          1           0        1.881484    0.899099   -0.117355
      6          1           0        1.881484   -0.899099   -0.117355
 ---------------------------------------------------------------------
                    Distance matrix (angstroms):
                    1          2          3          4          5
     1  O    0.000000
     2  H    0.964648   0.000000
     3  C    1.405956   1.938676   0.000000
     4  H    2.012045   2.820058   1.101012   0.000000
     5  H    2.109729   2.371772   1.109842   1.784457   0.000000
     6  H    2.109729   2.371772   1.109842   1.784457   1.798197
                    6
     6  H    0.000000
 Stoichiometry    CH4O
 Framework group  CS[SG(CH2O),X(H2)]
 Deg. of freedom     8
 Full point group                 CS      NOp   2
 RotChk:  IX=0 Diff= 4.71D-02
 Largest Abelian subgroup         CS      NOp   2
 Largest concise Abelian subgroup CS      NOp   2
                         Standard orientation:                         
 ---------------------------------------------------------------------
 Center     Atomic      Atomic             Coordinates (Angstroms)
 Number     Number       Type             X           Y           Z
 ---------------------------------------------------------------------
      1          8           0       -0.045190   -0.752236    0.000000
      2          1           0        0.870730   -1.054951    0.000000
      3          6           0       -0.045190    0.653720    0.000000
      4          1           0       -1.102933    0.959344    0.000000
      5          1           0        0.432431    1.095589    0.899099
      6          1           0        0.432431    1.095589   -0.899099
 ---------------------------------------------------------------------
 Rotational constants (GHZ):    126.5855165     25.0293463     24.1518832
 Leave Link  202 at Wed Sep  2 15:38:14 2015, MaxMem=    33554432 cpu:         0.0
 (Enter /group/hpc-share/gaussian/2009D/g09/l301.exe)
 Basis read from rwf:  (5D, 7F)
 No pseudopotential information found on rwf file.
 There are    28 symmetry adapted cartesian basis functions of A'  symmetry.
 There are    10 symmetry adapted cartesian basis functions of A"  symmetry.
 There are    26 symmetry adapted basis functions of A'  symmetry.
 There are    10 symmetry adapted basis functions of A"  symmetry.
    36 basis functions,    66 primitive gaussians,    38 cartesian basis functions
     9 alpha electrons        9 beta electrons
       nuclear repulsion energy        40.3366236997 Hartrees.
 IExCor= 1009 DFT=T Ex+Corr=PBE1PBE ExCW=0 ScaHFX=  0.250000
 ScaDFX=  0.750000  0.750000  1.000000  1.000000 ScalE2=  1.000000  1.000000
 IRadAn=      0 IRanWt=     -1 IRanGd=            0 ICorTp=0 IEmpDi=  4
 NAtoms=    6 NActive=    6 NUniq=    5 SFac= 1.44D+00 NAtFMM=   60 NAOKFM=F Big=F
 Integral buffers will be    131072 words long.
 Raffenetti 2 integral format.
 Two-electron integral symmetry is turned on.
 No density basis found on file   724.
 Leave Link  301 at Wed Sep  2 15:38:14 2015, MaxMem=    33554432 cpu:         0.4
 (Enter /group/hpc-share/gaussian/2009D/g09/l302.exe)
 NPDir=0 NMtPBC=     1 NCelOv=     1 NCel=       1 NClECP=     1 NCelD=      1
         NCelK=      1 NCelE2=     1 NClLst=     1 CellRange=     0.0.
 One-electron integrals computed using PRISM.
 One-electron integral symmetry used in STVInt
 NBasis=    36 RedAO= T EigKep=  1.63D-02  NBF=    26    10
 NBsUse=    36 1.00D-06 EigRej= -1.00D+00 NBFU=    26    10
 Precomputing XC quadrature grid using
 IXCGrd= 4 IRadAn=           0 IRanWt=          -1 IRanGd=           0 AccXCQ= 0.00D+00.
 Generated NRdTot=       0 NPtTot=           0 NUsed=           0 NTot=          32
 NSgBfM=    38    38    38    38    38 MxSgAt=     6 MxSgA2=     6.
 Leave Link  302 at Wed Sep  2 15:38:14 2015, MaxMem=    33554432 cpu:         1.4
 (Enter /group/hpc-share/gaussian/2009D/g09/l303.exe)
 DipDrv:  MaxL=1.
 Leave Link  303 at Wed Sep  2 15:38:14 2015, MaxMem=    33554432 cpu:         0.2
 (Enter /group/hpc-share/gaussian/2009D/g09/l401.exe)
 Initial guess from the checkpoint file:  "methanol.chk"
 B after Tr=     0.000000    0.000000    0.000000
         Rot=    0.999952    0.000000    0.000000   -0.009828 Ang=  -1.13 deg.
 Guess basis will be translated and rotated to current coordinates.
 JPrj=2 DoOrth=T DoCkMO=T.
 Initial guess orbital symmetries:
       Occupied  (A') (A') (A') (A') (A') (A") (A') (A') (A")
       Virtual   (A') (A') (A') (A') (A') (A') (A') (A') (A') (A')
                 (A') (A') (A') (A') (A') (A') (A') (A') (A') (A")
                 (A") (A") (A") (A") (A") (A") (A")
 The electronic state of the initial guess is 1-A'.
 Generating alternative initial guess.
 ExpMin= 1.22D-01 ExpMax= 2.27D+03 ExpMxC= 3.41D+02 IAcc=1 IRadAn=         1 AccDes= 0.00D+00
 Harris functional with IExCor= 1009 and IRadAn=       1 diagonalized for initial guess.
 HarFok:  IExCor= 1009 AccDes= 0.00D+00 IRadAn=         1 IDoV= 1 UseB2=F ITyADJ=14
 ICtDFT=  3500011 ScaDFX=  1.000000  1.000000  1.000000  1.000000
 FoFCou: FMM=F IPFlag=           0 FMFlag=      100000 FMFlg1=           0
         NFxFlg=           0 DoJE=T BraDBF=F KetDBF=T FulRan=T
         wScrn=  0.000000 ICntrl=     500 IOpCl=  0 I1Cent=   200000004 NGrid=           0
         NMat0=    1 NMatS0=      1 NMatT0=    0 NMatD0=    1 NMtDS0=    0 NMtDT0=    0
 Petite list used in FoFCou.
 Harris En= -115.531166890512    
 Leave Link  401 at Wed Sep  2 15:38:14 2015, MaxMem=    33554432 cpu:         1.7
 (Enter /group/hpc-share/gaussian/2009D/g09/l502.exe)
 Closed shell SCF:
 Using DIIS extrapolation, IDIIS=  1040.
 Integral symmetry usage will be decided dynamically.
 Keep R1 ints in memory in symmetry-blocked form, NReq=1107995.
 IVT=       23542 IEndB=       23542 NGot=    33554432 MDV=    33412564
 LenX=    33412564 LenY=    33410679
 Requested convergence on RMS density matrix=1.00D-08 within 128 cycles.
 Requested convergence on MAX density matrix=1.00D-06.
 Requested convergence on             energy=1.00D-06.
 No special actions if energy rises.
 FoFCou: FMM=F IPFlag=           0 FMFlag=           0 FMFlg1=           0
         NFxFlg=           0 DoJE=F BraDBF=F KetDBF=F FulRan=T
         wScrn=  0.000000 ICntrl=     600 IOpCl=  0 I1Cent=           0 NGrid=           0
         NMat0=    1 NMatS0=    666 NMatT0=    0 NMatD0=    1 NMtDS0=    0 NMtDT0=    0
 Petite list used in FoFCou.
 Integral accuracy reduced to 1.0D-05 until final iterations.

 Cycle   1  Pass 0  IDiag  1:
 E= -115.480769460145    
 DIIS: error= 3.24D-03 at cycle   1 NSaved=   1.
 NSaved= 1 IEnMin= 1 EnMin= -115.480769460145     IErMin= 1 ErrMin= 3.24D-03
 ErrMax= 3.24D-03  0.00D+00 EMaxC= 1.00D-01 BMatC= 5.31D-04 BMatP= 5.31D-04
 IDIUse=3 WtCom= 9.68D-01 WtEn= 3.24D-02
 Coeff-Com:  0.100D+01
 Coeff-En:   0.100D+01
 Coeff:      0.100D+01
 Gap=     0.570 Goal=   None    Shift=    0.000
 GapD=    0.570 DampG=2.000 DampE=1.000 DampFc=2.0000 IDamp=-1.
 RMSDP=1.24D-03 MaxDP=7.42D-03              OVMax= 8.82D-03

 Cycle   2  Pass 0  IDiag  1:
 E= -115.481465500099     Delta-E=       -0.000696039953 Rises=F Damp=F
 DIIS: error= 1.54D-03 at cycle   2 NSaved=   2.
 NSaved= 2 IEnMin= 2 EnMin= -115.481465500099     IErMin= 2 ErrMin= 1.54D-03
 ErrMax= 1.54D-03  0.00D+00 EMaxC= 1.00D-01 BMatC= 7.61D-05 BMatP= 5.31D-04
 IDIUse=3 WtCom= 9.85D-01 WtEn= 1.54D-02
 Coeff-Com:  0.176D+00 0.824D+00
 Coeff-En:   0.000D+00 0.100D+01
 Coeff:      0.173D+00 0.827D+00
 Gap=     0.347 Goal=   None    Shift=    0.000
 RMSDP=3.47D-04 MaxDP=4.74D-03 DE=-6.96D-04 OVMax= 4.00D-03

 Cycle   3  Pass 0  IDiag  1:
 E= -115.481511729628     Delta-E=       -0.000046229529 Rises=F Damp=F
 DIIS: error= 1.08D-03 at cycle   3 NSaved=   3.
 NSaved= 3 IEnMin= 3 EnMin= -115.481511729628     IErMin= 3 ErrMin= 1.08D-03
 ErrMax= 1.08D-03  0.00D+00 EMaxC= 1.00D-01 BMatC= 3.23D-05 BMatP= 7.61D-05
 IDIUse=3 WtCom= 9.89D-01 WtEn= 1.08D-02
 Coeff-Com: -0.160D-01 0.388D+00 0.628D+00
 Coeff-En:   0.000D+00 0.266D+00 0.734D+00
 Coeff:     -0.158D-01 0.387D+00 0.629D+00
 Gap=     0.346 Goal=   None    Shift=    0.000
 RMSDP=1.44D-04 MaxDP=2.01D-03 DE=-4.62D-05 OVMax= 1.66D-03

 Cycle   4  Pass 0  IDiag  1:
 E= -115.481543894139     Delta-E=       -0.000032164511 Rises=F Damp=F
 DIIS: error= 9.18D-05 at cycle   4 NSaved=   4.
 NSaved= 4 IEnMin= 4 EnMin= -115.481543894139     IErMin= 4 ErrMin= 9.18D-05
 ErrMax= 9.18D-05  0.00D+00 EMaxC= 1.00D-01 BMatC= 3.68D-07 BMatP= 3.23D-05
 IDIUse=1 WtCom= 1.00D+00 WtEn= 0.00D+00
 Coeff-Com: -0.988D-02 0.855D-01 0.179D+00 0.745D+00
 Coeff:     -0.988D-02 0.855D-01 0.179D+00 0.745D+00
 Gap=     0.346 Goal=   None    Shift=    0.000
 RMSDP=1.69D-05 MaxDP=1.34D-04 DE=-3.22D-05 OVMax= 2.32D-04

 Cycle   5  Pass 0  IDiag  1:
 E= -115.481544221201     Delta-E=       -0.000000327061 Rises=F Damp=F
 DIIS: error= 1.65D-05 at cycle   5 NSaved=   5.
 NSaved= 5 IEnMin= 5 EnMin= -115.481544221201     IErMin= 5 ErrMin= 1.65D-05
 ErrMax= 1.65D-05  0.00D+00 EMaxC= 1.00D-01 BMatC= 1.67D-08 BMatP= 3.68D-07
 IDIUse=1 WtCom= 1.00D+00 WtEn= 0.00D+00
 Coeff-Com: -0.257D-02 0.132D-01 0.329D-01 0.226D+00 0.730D+00
 Coeff:     -0.257D-02 0.132D-01 0.329D-01 0.226D+00 0.730D+00
 Gap=     0.346 Goal=   None    Shift=    0.000
 RMSDP=3.69D-06 MaxDP=4.16D-05 DE=-3.27D-07 OVMax= 3.76D-05

 Initial convergence to 1.0D-05 achieved.  Increase integral accuracy.
 Cycle   6  Pass 1  IDiag  1:
 E= -115.481539215628     Delta-E=        0.000005005572 Rises=F Damp=F
 DIIS: error= 1.18D-05 at cycle   1 NSaved=   1.
 NSaved= 1 IEnMin= 1 EnMin= -115.481539215628     IErMin= 1 ErrMin= 1.18D-05
 ErrMax= 1.18D-05  0.00D+00 EMaxC= 1.00D-01 BMatC= 6.92D-09 BMatP= 6.92D-09
 IDIUse=1 WtCom= 1.00D+00 WtEn= 0.00D+00
 Coeff-Com:  0.100D+01
 Coeff:      0.100D+01
 Gap=     0.346 Goal=   None    Shift=    0.000
 RMSDP=3.69D-06 MaxDP=4.16D-05 DE= 5.01D-06 OVMax= 4.01D-05

 Cycle   7  Pass 1  IDiag  1:
 E= -115.481539212288     Delta-E=        0.000000003340 Rises=F Damp=F
 DIIS: error= 1.54D-05 at cycle   2 NSaved=   2.
 NSaved= 2 IEnMin= 1 EnMin= -115.481539215628     IErMin= 1 ErrMin= 1.18D-05
 ErrMax= 1.54D-05  0.00D+00 EMaxC= 1.00D-01 BMatC= 1.22D-08 BMatP= 6.92D-09
 IDIUse=1 WtCom= 1.00D+00 WtEn= 0.00D+00
 Coeff-Com:  0.572D+00 0.428D+00
 Coeff:      0.572D+00 0.428D+00
 Gap=     0.346 Goal=   None    Shift=    0.000
 RMSDP=2.16D-06 MaxDP=2.31D-05 DE= 3.34D-09 OVMax= 2.17D-05

 Cycle   8  Pass 1  IDiag  1:
 E= -115.481539221122     Delta-E=       -0.000000008834 Rises=F Damp=F
 DIIS: error= 5.18D-07 at cycle   3 NSaved=   3.
 NSaved= 3 IEnMin= 3 EnMin= -115.481539221122     IErMin= 3 ErrMin= 5.18D-07
 ErrMax= 5.18D-07  0.00D+00 EMaxC= 1.00D-01 BMatC= 1.93D-11 BMatP= 6.92D-09
 IDIUse=1 WtCom= 1.00D+00 WtEn= 0.00D+00
 Coeff-Com:  0.135D-01 0.380D-01 0.948D+00
 Coeff:      0.135D-01 0.380D-01 0.948D+00
 Gap=     0.346 Goal=   None    Shift=    0.000
 RMSDP=1.55D-07 MaxDP=1.49D-06 DE=-8.83D-09 OVMax= 2.04D-06

 Cycle   9  Pass 1  IDiag  1:
 E= -115.481539221137     Delta-E=       -0.000000000015 Rises=F Damp=F
 DIIS: error= 2.46D-07 at cycle   4 NSaved=   4.
 NSaved= 4 IEnMin= 4 EnMin= -115.481539221137     IErMin= 4 ErrMin= 2.46D-07
 ErrMax= 2.46D-07  0.00D+00 EMaxC= 1.00D-01 BMatC= 3.00D-12 BMatP= 1.93D-11
 IDIUse=1 WtCom= 1.00D+00 WtEn= 0.00D+00
 Coeff-Com: -0.156D-01-0.105D-02 0.352D+00 0.665D+00
 Coeff:     -0.156D-01-0.105D-02 0.352D+00 0.665D+00
 Gap=     0.346 Goal=   None    Shift=    0.000
 RMSDP=5.04D-08 MaxDP=5.58D-07 DE=-1.52D-11 OVMax= 6.29D-07

 Cycle  10  Pass 1  IDiag  1:
 E= -115.481539221139     Delta-E=       -0.000000000002 Rises=F Damp=F
 DIIS: error= 8.35D-08 at cycle   5 NSaved=   5.
 NSaved= 5 IEnMin= 5 EnMin= -115.481539221139     IErMin= 5 ErrMin= 8.35D-08
 ErrMax= 8.35D-08  0.00D+00 EMaxC= 1.00D-01 BMatC= 2.18D-13 BMatP= 3.00D-12
 IDIUse=1 WtCom= 1.00D+00 WtEn= 0.00D+00
 Coeff-Com: -0.812D-02-0.271D-02 0.112D+00 0.289D+00 0.610D+00
 Coeff:     -0.812D-02-0.271D-02 0.112D+00 0.289D+00 0.610D+00
 Gap=     0.346 Goal=   None    Shift=    0.000
 RMSDP=1.21D-08 MaxDP=1.71D-07 DE=-1.79D-12 OVMax= 1.48D-07

 Cycle  11  Pass 1  IDiag  1:
 E= -115.481539221140     Delta-E=       -0.000000000001 Rises=F Damp=F
 DIIS: error= 6.63D-09 at cycle   6 NSaved=   6.
 NSaved= 6 IEnMin= 6 EnMin= -115.481539221140     IErMin= 6 ErrMin= 6.63D-09
 ErrMax= 6.63D-09  0.00D+00 EMaxC= 1.00D-01 BMatC= 1.96D-15 BMatP= 2.18D-13
 IDIUse=1 WtCom= 1.00D+00 WtEn= 0.00D+00
 Coeff-Com:  0.280D-03-0.215D-03-0.854D-02-0.202D-01 0.375D-01 0.991D+00
 Coeff:      0.280D-03-0.215D-03-0.854D-02-0.202D-01 0.375D-01 0.991D+00
 Gap=     0.346 Goal=   None    Shift=    0.000
 RMSDP=1.83D-09 MaxDP=1.22D-08 DE=-6.25D-13 OVMax= 2.84D-08

 SCF Done:  E(RPBE1PBE) =  -115.481539221     A.U. after   11 cycles
            NFock= 11  Conv=0.18D-08     -V/T= 2.0072
 KE= 1.146580654887D+02 PE=-3.515494845529D+02 EE= 8.107325614329D+01
 Leave Link  502 at Wed Sep  2 15:38:15 2015, MaxMem=    33554432 cpu:         2.2
 (Enter /group/hpc-share/gaussian/2009D/g09/l701.exe)
 Compute integral first derivatives.
 ... and contract with generalized density number  0.
 Leave Link  701 at Wed Sep  2 15:38:15 2015, MaxMem=    33554432 cpu:         1.0
 (Enter /group/hpc-share/gaussian/2009D/g09/l702.exe)
 L702 exits ... SP integral derivatives will be done elsewhere.
 Leave Link  702 at Wed Sep  2 15:38:15 2015, MaxMem=    33554432 cpu:         0.2
 (Enter /group/hpc-share/gaussian/2009D/g09/l703.exe)
 Compute integral first derivatives, UseDBF=F ICtDFT=           0.
 Integral derivatives from FoFJK, PRISM(SPDF).
 Calling FoFJK, ICntrl=      2127 FMM=F ISym2X=1 I1Cent= 0 IOpClX= 0 NMat=1 NMatS=1 NMatT=0.
 FoFJK:  IHMeth= 1 ICntrl=    2127 DoSepK=F KAlg= 0 I1Cent=   0 FoldK=F
 IRaf=         0 NMat=   1 IRICut=       1 DoRegI=T DoRafI=F ISym2E= 1.
 FoFCou: FMM=F IPFlag=           0 FMFlag=      100000 FMFlg1=         800
         NFxFlg=           0 DoJE=F BraDBF=F KetDBF=F FulRan=T
         wScrn=  0.000000 ICntrl=    2127 IOpCl=  0 I1Cent=           0 NGrid=           0
         NMat0=    1 NMatS0=      1 NMatT0=    0 NMatD0=    1 NMtDS0=    0 NMtDT0=    0
 Petite list used in FoFCou.
 Leave Link  703 at Wed Sep  2 15:38:15 2015, MaxMem=    33554432 cpu:         1.6
 (Enter /group/hpc-share/gaussian/2009D/g09/l716.exe)
 Dipole        = 5.88369826D-01 3.43392363D-01 2.22044605D-16
 ***** Axes restored to original set *****
 -------------------------------------------------------------------
 Center     Atomic                   Forces (Hartrees/Bohr)
 Number     Number              X              Y              Z
 -------------------------------------------------------------------
      1        8           0.005963699    0.000000000   -0.001608071
      2        1          -0.000698994    0.000000000    0.002821583
      3        6          -0.005976292    0.000000000   -0.001788979
      4        1           0.001790112    0.000000000   -0.000935029
      5        1          -0.000539262    0.000389260    0.000755248
      6        1          -0.000539262   -0.000389260    0.000755248
 -------------------------------------------------------------------
 Cartesian Forces:  Max     0.005976292 RMS     0.002256131
 Leave Link  716 at Wed Sep  2 15:38:15 2015, MaxMem=    33554432 cpu:         0.2
 (Enter /group/hpc-share/gaussian/2009D/g09/l103.exe)

 GradGradGradGradGradGradGradGradGradGradGradGradGradGradGradGradGradGrad
 Berny optimization.
 Using GEDIIS/GDIIS optimizer.
 FormGI is forming the generalized inverse of G from B-inverse, IUseBI=4.
 Internal  Forces:  Max     0.004650951 RMS     0.001890750
 Search for a local minimum.
 Step number   2 out of a maximum of   25
 All quantities printed in internal units (Hartrees-Bohrs-Radians)
 RMS Force = .18908D-02 SwitMx=.10000D-02 MixMth= 1
 Mixed Optimization -- RFO/linear search
 Update second derivatives using D2CorX and points    1    2
 DE= -1.99D-03 DEPred=-2.36D-03 R= 8.43D-01
 TightC=F SS=  1.41D+00  RLast= 1.52D-01 DXNew= 5.0454D-01 4.5593D-01
 Trust test= 8.43D-01 RLast= 1.52D-01 DXMaxT set to 4.56D-01
 The second derivative matrix:
                          R1        R2        R3        R4        R5
           R1           0.55356
           R2           0.00720   0.46940
           R3          -0.01008   0.00466   0.34507
           R4          -0.01411   0.01059  -0.00550   0.34322
           R5          -0.01411   0.01059  -0.00550  -0.00606   0.34322
           A1          -0.00011  -0.00514  -0.00057  -0.00216  -0.00216
           A2           0.00216  -0.01273  -0.00027  -0.00355  -0.00355
           A3          -0.00660   0.01216  -0.00185   0.00008   0.00008
           A4          -0.00660   0.01216  -0.00185   0.00008   0.00008
           A5           0.00815  -0.00181   0.00360   0.00523   0.00523
           A6           0.00815  -0.00181   0.00360   0.00523   0.00523
           A7          -0.00262  -0.00732  -0.00195  -0.00487  -0.00487
           D1           0.00000   0.00000   0.00000   0.00000   0.00000
           D2          -0.01007  -0.00838  -0.00551  -0.01075  -0.01075
           D3           0.01007   0.00838   0.00551   0.01075   0.01075
                          A1        A2        A3        A4        A5
           A1           0.16173
           A2           0.00406   0.16924
           A3          -0.00343  -0.00730   0.16477
           A4          -0.00343  -0.00730   0.00477   0.16477
           A5          -0.00020  -0.00131   0.00278   0.00278   0.15718
           A6          -0.00020  -0.00131   0.00278   0.00278  -0.00282
           A7           0.00271   0.00660  -0.00608  -0.00608   0.00055
           D1           0.00000   0.00000   0.00000   0.00000   0.00000
           D2           0.00381   0.00993  -0.01040  -0.01040   0.00300
           D3          -0.00381  -0.00993   0.01040   0.01040  -0.00300
                          A6        A7        D1        D2        D3
           A6           0.15718
           A7           0.00055   0.16399
           D1           0.00000   0.00000   0.01692
           D2           0.00300   0.00492   0.00000   0.02113
           D3          -0.00300  -0.00492   0.00000  -0.00421   0.02113
 ITU=  1  0
 Use linear search instead of GDIIS.
     Eigenvalues ---    0.01692   0.10457   0.10615   0.15609   0.16000
     Eigenvalues ---    0.16000   0.18865   0.32922   0.34928   0.34981
     Eigenvalues ---    0.47347   0.55635
 RFO step:  Lambda=-1.39575784D-04 EMin= 1.69178031D-02
 Quartic linear search produced a step of -0.10123.
 Iteration  1 RMS(Cart)=  0.00963949 RMS(Int)=  0.00012959
 Iteration  2 RMS(Cart)=  0.00005920 RMS(Int)=  0.00011710
 Iteration  3 RMS(Cart)=  0.00000000 RMS(Int)=  0.00011710
 ITry= 1 IFail=0 DXMaxC= 1.96D-02 DCOld= 1.00D+10 DXMaxT= 4.56D-01 DXLimC= 3.00D+00 Rises=F
 ClnCor:  largest displacement from symmetrization is 1.21D-12 for atom     6.
 Variable       Old X    -DE/DX   Delta X   Delta X   Delta X     New X
                                 (Linear)    (Quad)   (Total)
    R1        1.82292   0.00283  -0.00280   0.00811   0.00531   1.82823
    R2        2.65687  -0.00465  -0.00114  -0.00764  -0.00878   2.64809
    R3        2.08061   0.00089  -0.00230   0.00532   0.00302   2.08363
    R4        2.09730   0.00026  -0.00399   0.00593   0.00194   2.09924
    R5        2.09730   0.00026  -0.00399   0.00593   0.00194   2.09924
    A1        1.89000   0.00122   0.00209   0.00410   0.00619   1.89619
    A2        1.85208   0.00358   0.00593   0.01465   0.02054   1.87261
    A3        1.98028  -0.00174  -0.00705  -0.00192  -0.00884   1.97144
    A4        1.98028  -0.00174  -0.00705  -0.00192  -0.00884   1.97144
    A5        1.87855  -0.00019   0.00325  -0.00308   0.00013   1.87868
    A6        1.87855  -0.00019   0.00325  -0.00308   0.00013   1.87868
    A7        1.88869   0.00047   0.00222  -0.00447  -0.00199   1.88670
    D1        3.14159   0.00000   0.00000   0.00000   0.00000   3.14159
    D2       -1.08248   0.00110   0.00357   0.00461   0.00841  -1.07407
    D3        1.08248  -0.00110  -0.00357  -0.00461  -0.00841   1.07407
         Item               Value     Threshold  Converged?
 Maximum Force            0.004651     0.000450     NO 
 RMS     Force            0.001891     0.000300     NO 
 Maximum Displacement     0.019644     0.001800     NO 
 RMS     Displacement     0.009638     0.001200     NO 
 Predicted change in Energy=-9.319675D-05
 Lowest energy point so far.  Saving SCF results.
 GradGradGradGradGradGradGradGradGradGradGradGradGradGradGradGradGradGrad

 Leave Link  103 at Wed Sep  2 15:38:15 2015, MaxMem=    33554432 cpu:         0.1
 (Enter /group/hpc-share/gaussian/2009D/g09/l202.exe)
                          Input orientation:                          
 ---------------------------------------------------------------------
 Center     Atomic      Atomic             Coordinates (Angstroms)
 Number     Number       Type             X           Y           Z
 ---------------------------------------------------------------------
      1          8           0       -0.020951    0.000000   -0.012315
      2          1           0       -0.032119    0.000000    0.955079
      3          6           0        1.311909    0.000000   -0.444925
      4          1           0        1.298645    0.000000   -1.547454
      5          1           0        1.874483    0.899282   -0.115026
      6          1           0        1.874483   -0.899282   -0.115026
 ---------------------------------------------------------------------
                    Distance matrix (angstroms):
                    1          2          3          4          5
     1  O    0.000000
     2  H    0.967458   0.000000
     3  C    1.401310   1.940727   0.000000
     4  H    2.024348   2.834361   1.102609   0.000000
     5  H    2.100460   2.364099   1.110870   1.786658   0.000000
     6  H    2.100460   2.364099   1.110870   1.786658   1.798565
                    6
     6  H    0.000000
 Stoichiometry    CH4O
 Framework group  CS[SG(CH2O),X(H2)]
 Deg. of freedom     8
 Full point group                 CS      NOp   2
 RotChk:  IX=0 Diff= 1.03D-02
 Largest Abelian subgroup         CS      NOp   2
 Largest concise Abelian subgroup CS      NOp   2
                         Standard orientation:                         
 ---------------------------------------------------------------------
 Center     Atomic      Atomic             Coordinates (Angstroms)
 Number     Number       Type             X           Y           Z
 ---------------------------------------------------------------------
      1          8           0       -0.046603   -0.749820    0.000000
      2          1           0        0.870089   -1.059095    0.000000
      3          6           0       -0.046603    0.651489    0.000000
      4          1           0       -1.099371    0.979244    0.000000
      5          1           0        0.440859    1.084738    0.899282
      6          1           0        0.440859    1.084738   -0.899282
 ---------------------------------------------------------------------
 Rotational constants (GHZ):    126.3296295     25.1417623     24.2486784
 Leave Link  202 at Wed Sep  2 15:38:15 2015, MaxMem=    33554432 cpu:         0.0
 (Enter /group/hpc-share/gaussian/2009D/g09/l301.exe)
 Basis read from rwf:  (5D, 7F)
 No pseudopotential information found on rwf file.
 There are    28 symmetry adapted cartesian basis functions of A'  symmetry.
 There are    10 symmetry adapted cartesian basis functions of A"  symmetry.
 There are    26 symmetry adapted basis functions of A'  symmetry.
 There are    10 symmetry adapted basis functions of A"  symmetry.
    36 basis functions,    66 primitive gaussians,    38 cartesian basis functions
     9 alpha electrons        9 beta electrons
       nuclear repulsion energy        40.3772012561 Hartrees.
 IExCor= 1009 DFT=T Ex+Corr=PBE1PBE ExCW=0 ScaHFX=  0.250000
 ScaDFX=  0.750000  0.750000  1.000000  1.000000 ScalE2=  1.000000  1.000000
 IRadAn=      0 IRanWt=     -1 IRanGd=            0 ICorTp=0 IEmpDi=  4
 NAtoms=    6 NActive=    6 NUniq=    5 SFac= 1.44D+00 NAtFMM=   60 NAOKFM=F Big=F
 Integral buffers will be    131072 words long.
 Raffenetti 2 integral format.
 Two-electron integral symmetry is turned on.
 No density basis found on file   724.
 Leave Link  301 at Wed Sep  2 15:38:16 2015, MaxMem=    33554432 cpu:         0.4
 (Enter /group/hpc-share/gaussian/2009D/g09/l302.exe)
 NPDir=0 NMtPBC=     1 NCelOv=     1 NCel=       1 NClECP=     1 NCelD=      1
         NCelK=      1 NCelE2=     1 NClLst=     1 CellRange=     0.0.
 One-electron integrals computed using PRISM.
 One-electron integral symmetry used in STVInt
 NBasis=    36 RedAO= T EigKep=  1.63D-02  NBF=    26    10
 NBsUse=    36 1.00D-06 EigRej= -1.00D+00 NBFU=    26    10
 Precomputing XC quadrature grid using
 IXCGrd= 4 IRadAn=           0 IRanWt=          -1 IRanGd=           0 AccXCQ= 0.00D+00.
 Generated NRdTot=       0 NPtTot=           0 NUsed=           0 NTot=          32
 NSgBfM=    38    38    38    38    38 MxSgAt=     6 MxSgA2=     6.
 Leave Link  302 at Wed Sep  2 15:38:16 2015, MaxMem=    33554432 cpu:         1.5
 (Enter /group/hpc-share/gaussian/2009D/g09/l303.exe)
 DipDrv:  MaxL=1.
 Leave Link  303 at Wed Sep  2 15:38:16 2015, MaxMem=    33554432 cpu:         0.1
 (Enter /group/hpc-share/gaussian/2009D/g09/l401.exe)
 Initial guess from the checkpoint file:  "methanol.chk"
 B after Tr=     0.000000    0.000000    0.000000
         Rot=    0.999998    0.000000    0.000000    0.002187 Ang=   0.25 deg.
 Guess basis will be translated and rotated to current coordinates.
 JPrj=2 DoOrth=T DoCkMO=T.
 Initial guess orbital symmetries:
       Occupied  (A') (A') (A') (A') (A') (A") (A') (A') (A")
       Virtual   (A') (A') (A') (A') (A') (A') (A') (A') (A') (A')
                 (A') (A') (A') (A') (A') (A') (A') (A') (A') (A")
                 (A") (A") (A") (A") (A") (A") (A")
 The electronic state of the initial guess is 1-A'.
 Leave Link  401 at Wed Sep  2 15:38:16 2015, MaxMem=    33554432 cpu:         0.7
 (Enter /group/hpc-share/gaussian/2009D/g09/l502.exe)
 Closed shell SCF:
 Using DIIS extrapolation, IDIIS=  1040.
 Integral symmetry usage will be decided dynamically.
 Keep R1 ints in memory in symmetry-blocked form, NReq=1107995.
 IVT=       23542 IEndB=       23542 NGot=    33554432 MDV=    33412564
 LenX=    33412564 LenY=    33410679
 Requested convergence on RMS density matrix=1.00D-08 within 128 cycles.
 Requested convergence on MAX density matrix=1.00D-06.
 Requested convergence on             energy=1.00D-06.
 No special actions if energy rises.
 FoFCou: FMM=F IPFlag=           0 FMFlag=           0 FMFlg1=           0
         NFxFlg=           0 DoJE=F BraDBF=F KetDBF=F FulRan=T
         wScrn=  0.000000 ICntrl=     600 IOpCl=  0 I1Cent=           0 NGrid=           0
         NMat0=    1 NMatS0=    666 NMatT0=    0 NMatD0=    1 NMtDS0=    0 NMtDT0=    0
 Petite list used in FoFCou.

 Cycle   1  Pass 1  IDiag  1:
 E= -115.481600393646    
 DIIS: error= 4.80D-04 at cycle   1 NSaved=   1.
 NSaved= 1 IEnMin= 1 EnMin= -115.481600393646     IErMin= 1 ErrMin= 4.80D-04
 ErrMax= 4.80D-04  0.00D+00 EMaxC= 1.00D-01 BMatC= 2.42D-05 BMatP= 2.42D-05
 IDIUse=3 WtCom= 9.95D-01 WtEn= 4.80D-03
 Coeff-Com:  0.100D+01
 Coeff-En:   0.100D+01
 Coeff:      0.100D+01
 Gap=     0.567 Goal=   None    Shift=    0.000
 RMSDP=2.30D-04 MaxDP=1.46D-03              OVMax= 1.92D-03

 Cycle   2  Pass 1  IDiag  1:
 E= -115.481634704743     Delta-E=       -0.000034311098 Rises=F Damp=F
 DIIS: error= 8.78D-05 at cycle   2 NSaved=   2.
 NSaved= 2 IEnMin= 2 EnMin= -115.481634704743     IErMin= 2 ErrMin= 8.78D-05
 ErrMax= 8.78D-05  0.00D+00 EMaxC= 1.00D-01 BMatC= 4.63D-07 BMatP= 2.42D-05
 IDIUse=1 WtCom= 1.00D+00 WtEn= 0.00D+00
 Coeff-Com:  0.185D-03 0.100D+01
 Coeff:      0.185D-03 0.100D+01
 Gap=     0.345 Goal=   None    Shift=    0.000
 RMSDP=3.69D-05 MaxDP=2.40D-04 DE=-3.43D-05 OVMax= 3.62D-04

 Cycle   3  Pass 1  IDiag  1:
 E= -115.481635162378     Delta-E=       -0.000000457635 Rises=F Damp=F
 DIIS: error= 7.19D-05 at cycle   3 NSaved=   3.
 NSaved= 3 IEnMin= 3 EnMin= -115.481635162378     IErMin= 3 ErrMin= 7.19D-05
 ErrMax= 7.19D-05  0.00D+00 EMaxC= 1.00D-01 BMatC= 1.97D-07 BMatP= 4.63D-07
 IDIUse=1 WtCom= 1.00D+00 WtEn= 0.00D+00
 Coeff-Com: -0.168D-01 0.379D+00 0.638D+00
 Coeff:     -0.168D-01 0.379D+00 0.638D+00
 Gap=     0.345 Goal=   None    Shift=    0.000
 RMSDP=1.41D-05 MaxDP=1.15D-04 DE=-4.58D-07 OVMax= 1.41D-04

 Cycle   4  Pass 1  IDiag  1:
 E= -115.481635322119     Delta-E=       -0.000000159741 Rises=F Damp=F
 DIIS: error= 2.70D-05 at cycle   4 NSaved=   4.
 NSaved= 4 IEnMin= 4 EnMin= -115.481635322119     IErMin= 4 ErrMin= 2.70D-05
 ErrMax= 2.70D-05  0.00D+00 EMaxC= 1.00D-01 BMatC= 2.82D-08 BMatP= 1.97D-07
 IDIUse=1 WtCom= 1.00D+00 WtEn= 0.00D+00
 Coeff-Com: -0.916D-02 0.821D-01 0.301D+00 0.626D+00
 Coeff:     -0.916D-02 0.821D-01 0.301D+00 0.626D+00
 Gap=     0.345 Goal=   None    Shift=    0.000
 RMSDP=3.84D-06 MaxDP=3.82D-05 DE=-1.60D-07 OVMax= 4.33D-05

 Cycle   5  Pass 1  IDiag  1:
 E= -115.481635343638     Delta-E=       -0.000000021519 Rises=F Damp=F
 DIIS: error= 4.18D-06 at cycle   5 NSaved=   5.
 NSaved= 5 IEnMin= 5 EnMin= -115.481635343638     IErMin= 5 ErrMin= 4.18D-06
 ErrMax= 4.18D-06  0.00D+00 EMaxC= 1.00D-01 BMatC= 1.00D-09 BMatP= 2.82D-08
 IDIUse=1 WtCom= 1.00D+00 WtEn= 0.00D+00
 Coeff-Com: -0.278D-02 0.116D-01 0.804D-01 0.233D+00 0.677D+00
 Coeff:     -0.278D-02 0.116D-01 0.804D-01 0.233D+00 0.677D+00
 Gap=     0.345 Goal=   None    Shift=    0.000
 RMSDP=8.23D-07 MaxDP=1.01D-05 DE=-2.15D-08 OVMax= 9.22D-06

 Cycle   6  Pass 1  IDiag  1:
 E= -115.481635344295     Delta-E=       -0.000000000657 Rises=F Damp=F
 DIIS: error= 1.57D-06 at cycle   6 NSaved=   6.
 NSaved= 6 IEnMin= 6 EnMin= -115.481635344295     IErMin= 6 ErrMin= 1.57D-06
 ErrMax= 1.57D-06  0.00D+00 EMaxC= 1.00D-01 BMatC= 1.78D-10 BMatP= 1.00D-09
 IDIUse=1 WtCom= 1.00D+00 WtEn= 0.00D+00
 Coeff-Com:  0.457D-04-0.470D-02-0.127D-02 0.276D-01 0.326D+00 0.652D+00
 Coeff:      0.457D-04-0.470D-02-0.127D-02 0.276D-01 0.326D+00 0.652D+00
 Gap=     0.345 Goal=   None    Shift=    0.000
 RMSDP=3.05D-07 MaxDP=3.65D-06 DE=-6.57D-10 OVMax= 4.01D-06

 Cycle   7  Pass 1  IDiag  1:
 E= -115.481635344455     Delta-E=       -0.000000000161 Rises=F Damp=F
 DIIS: error= 1.10D-07 at cycle   7 NSaved=   7.
 NSaved= 7 IEnMin= 7 EnMin= -115.481635344455     IErMin= 7 ErrMin= 1.10D-07
 ErrMax= 1.10D-07  0.00D+00 EMaxC= 1.00D-01 BMatC= 7.12D-13 BMatP= 1.78D-10
 IDIUse=1 WtCom= 1.00D+00 WtEn= 0.00D+00
 Coeff-Com:  0.734D-04-0.105D-02-0.215D-02-0.539D-03 0.372D-01 0.113D+00
 Coeff-Com:  0.853D+00
 Coeff:      0.734D-04-0.105D-02-0.215D-02-0.539D-03 0.372D-01 0.113D+00
[...]
 NSaved= 3 IEnMin= 3 EnMin= -115.481641602221     IErMin= 3 ErrMin= 2.38D-05
 ErrMax= 2.38D-05  0.00D+00 EMaxC= 1.00D-01 BMatC= 3.25D-08 BMatP= 3.21D-08
 IDIUse=1 WtCom= 1.00D+00 WtEn= 0.00D+00
 Coeff-Com: -0.336D-01 0.509D+00 0.525D+00
 Coeff:     -0.336D-01 0.509D+00 0.525D+00
 Gap=     0.345 Goal=   None    Shift=    0.000
 RMSDP=3.66D-06 MaxDP=3.87D-05 DE=-1.83D-09 OVMax= 3.62D-05

 Cycle   4  Pass 1  IDiag  1:
 E= -115.481641625908     Delta-E=       -0.000000023686 Rises=F Damp=F
 DIIS: error= 1.78D-06 at cycle   4 NSaved=   4.
 NSaved= 4 IEnMin= 4 EnMin= -115.481641625908     IErMin= 4 ErrMin= 1.78D-06
 ErrMax= 1.78D-06  0.00D+00 EMaxC= 1.00D-01 BMatC= 1.57D-10 BMatP= 3.21D-08
 IDIUse=1 WtCom= 1.00D+00 WtEn= 0.00D+00
 Coeff-Com: -0.122D-01 0.869D-01 0.132D+00 0.793D+00
 Coeff:     -0.122D-01 0.869D-01 0.132D+00 0.793D+00
 Gap=     0.345 Goal=   None    Shift=    0.000
 RMSDP=3.01D-07 MaxDP=2.07D-06 DE=-2.37D-08 OVMax= 3.39D-06

 Cycle   5  Pass 1  IDiag  1:
 E= -115.481641626046     Delta-E=       -0.000000000138 Rises=F Damp=F
 DIIS: error= 1.78D-07 at cycle   5 NSaved=   5.
 NSaved= 5 IEnMin= 5 EnMin= -115.481641626046     IErMin= 5 ErrMin= 1.78D-07
 ErrMax= 1.78D-07  0.00D+00 EMaxC= 1.00D-01 BMatC= 1.02D-12 BMatP= 1.57D-10
 IDIUse=1 WtCom= 1.00D+00 WtEn= 0.00D+00
 Coeff-Com: -0.469D-04-0.544D-02-0.301D-03 0.588D-01 0.947D+00
 Coeff:     -0.469D-04-0.544D-02-0.301D-03 0.588D-01 0.947D+00
 Gap=     0.345 Goal=   None    Shift=    0.000
 RMSDP=4.49D-08 MaxDP=2.91D-07 DE=-1.38D-10 OVMax= 5.23D-07

 Cycle   6  Pass 1  IDiag  1:
 E= -115.481641626046     Delta-E=       -0.000000000001 Rises=F Damp=F
 DIIS: error= 2.42D-08 at cycle   6 NSaved=   6.
 NSaved= 6 IEnMin= 6 EnMin= -115.481641626046     IErMin= 6 ErrMin= 2.42D-08
 ErrMax= 2.42D-08  0.00D+00 EMaxC= 1.00D-01 BMatC= 3.27D-14 BMatP= 1.02D-12
 IDIUse=1 WtCom= 1.00D+00 WtEn= 0.00D+00
 Coeff-Com:  0.232D-03-0.284D-02-0.276D-02-0.444D-02 0.163D+00 0.847D+00
 Coeff:      0.232D-03-0.284D-02-0.276D-02-0.444D-02 0.163D+00 0.847D+00
 Gap=     0.345 Goal=   None    Shift=    0.000
 RMSDP=6.80D-09 MaxDP=4.80D-08 DE=-7.39D-13 OVMax= 8.88D-08

 SCF Done:  E(RPBE1PBE) =  -115.481641626     A.U. after    6 cycles
            NFock=  6  Conv=0.68D-08     -V/T= 2.0072
 KE= 1.146603910262D+02 PE=-3.517250230092D+02 EE= 8.115757571966D+01
 Leave Link  502 at Wed Sep  2 15:38:20 2015, MaxMem=    33554432 cpu:         2.0
 (Enter /group/hpc-share/gaussian/2009D/g09/l701.exe)
 Compute integral first derivatives.
 ... and contract with generalized density number  0.
 Leave Link  701 at Wed Sep  2 15:38:20 2015, MaxMem=    33554432 cpu:         1.0
 (Enter /group/hpc-share/gaussian/2009D/g09/l702.exe)
 L702 exits ... SP integral derivatives will be done elsewhere.
 Leave Link  702 at Wed Sep  2 15:38:20 2015, MaxMem=    33554432 cpu:         0.2
 (Enter /group/hpc-share/gaussian/2009D/g09/l703.exe)
 Compute integral first derivatives, UseDBF=F ICtDFT=           0.
 Integral derivatives from FoFJK, PRISM(SPDF).
 Calling FoFJK, ICntrl=      2127 FMM=F ISym2X=1 I1Cent= 0 IOpClX= 0 NMat=1 NMatS=1 NMatT=0.
 FoFJK:  IHMeth= 1 ICntrl=    2127 DoSepK=F KAlg= 0 I1Cent=   0 FoldK=F
 IRaf=         0 NMat=   1 IRICut=       1 DoRegI=T DoRafI=F ISym2E= 1.
 FoFCou: FMM=F IPFlag=           0 FMFlag=      100000 FMFlg1=         800
         NFxFlg=           0 DoJE=F BraDBF=F KetDBF=F FulRan=T
         wScrn=  0.000000 ICntrl=    2127 IOpCl=  0 I1Cent=           0 NGrid=           0
         NMat0=    1 NMatS0=      1 NMatT0=    0 NMatD0=    1 NMtDS0=    0 NMtDT0=    0
 Petite list used in FoFCou.
 Leave Link  703 at Wed Sep  2 15:38:20 2015, MaxMem=    33554432 cpu:         1.5
 (Enter /group/hpc-share/gaussian/2009D/g09/l716.exe)
 Dipole        = 5.89402483D-01 3.30605077D-01 0.00000000D+00
 ***** Axes restored to original set *****
 -------------------------------------------------------------------
 Center     Atomic                   Forces (Hartrees/Bohr)
 Number     Number              X              Y              Z
 -------------------------------------------------------------------
      1        8          -0.000025298    0.000000000    0.000054397
      2        1           0.000018057    0.000000000   -0.000065186
      3        6          -0.000000900    0.000000000    0.000019358
      4        1          -0.000022439    0.000000000   -0.000020701
      5        1           0.000015290    0.000013359    0.000006066
      6        1           0.000015290   -0.000013359    0.000006066
 -------------------------------------------------------------------
 Cartesian Forces:  Max     0.000065186 RMS     0.000024014
 Leave Link  716 at Wed Sep  2 15:38:20 2015, MaxMem=    33554432 cpu:         0.2
 (Enter /group/hpc-share/gaussian/2009D/g09/l103.exe)

 GradGradGradGradGradGradGradGradGradGradGradGradGradGradGradGradGradGrad
 Berny optimization.
 Using GEDIIS/GDIIS optimizer.
 FormGI is forming the generalized inverse of G from B-inverse, IUseBI=4.
 Internal  Forces:  Max     0.000069477 RMS     0.000022658
 Search for a local minimum.
 Step number   5 out of a maximum of   25
 All quantities printed in internal units (Hartrees-Bohrs-Radians)
 RMS Force = .22658D-04 SwitMx=.10000D-02 MixMth= 2
 Mixed Optimization -- En-DIIS/RFO-DIIS
 Swapping is turned off.
 Update second derivatives using D2CorX and points    1    2    3    4    5
 DE= -5.25D-07 DEPred=-5.46D-07 R= 9.61D-01
 Trust test= 9.61D-01 RLast= 2.76D-03 DXMaxT set to 4.56D-01
 The second derivative matrix:
                          R1        R2        R3        R4        R5
           R1           0.55302
           R2          -0.01278   0.38792
           R3          -0.00214   0.01943   0.35241
           R4          -0.00567   0.02443  -0.00030   0.34674
           R5          -0.00567   0.02443  -0.00030  -0.00255   0.34674
           A1           0.01116   0.04678   0.00434  -0.00101  -0.00101
           A2           0.00263   0.02809   0.00353  -0.00234  -0.00234
           A3           0.00428   0.02421  -0.00279  -0.00139  -0.00139
           A4           0.00428   0.02421  -0.00279  -0.00139  -0.00139
           A5          -0.00743  -0.02691  -0.00088   0.00259   0.00259
           A6          -0.00743  -0.02691  -0.00088   0.00259   0.00259
           A7           0.00743  -0.02630   0.00606   0.00320   0.00320
           D1           0.00000   0.00000   0.00000   0.00000   0.00000
           D2           0.01124   0.00194   0.00635  -0.00095  -0.00095
           D3          -0.01124  -0.00194  -0.00635   0.00095   0.00095
                          A1        A2        A3        A4        A5
           A1           0.18396
           A2           0.01665   0.16903
           A3          -0.00403  -0.00359   0.16043
           A4          -0.00403  -0.00359   0.00043   0.16043
           A5          -0.00682  -0.00929   0.00634   0.00634   0.15787
           A6          -0.00682  -0.00929   0.00634   0.00634  -0.00213
           A7           0.00408   0.01566  -0.00815  -0.00815  -0.00048
           D1           0.00000   0.00000   0.00000   0.00000   0.00000
           D2           0.01025   0.02365  -0.01557  -0.01557   0.00125
           D3          -0.01025  -0.02365   0.01557   0.01557  -0.00125
                          A6        A7        D1        D2        D3
           A6           0.15787
           A7          -0.00048   0.16180
           D1           0.00000   0.00000   0.01692
           D2           0.00125   0.00625   0.00000   0.02635
           D3          -0.00125  -0.00625   0.00000  -0.00944   0.02635
 ITU=  0  1  1  1  0
     Eigenvalues ---    0.01692   0.10514   0.10700   0.13722   0.16000
     Eigenvalues ---    0.16347   0.20742   0.33163   0.34928   0.35150
     Eigenvalues ---    0.42903   0.55486
 En-DIIS/RFO-DIIS IScMMF=        0 using points:     5    4    3
 RFO step:  Lambda=-1.19392685D-08.
 NNeg= 0 NP= 3 Switch=  2.50D-03 Rises=F DC=  5.76D-06 SmlDif=  1.00D-05
 RMS Error=  0.3597448412D-04 NUsed= 3 EDIIS=F
 DidBck=F Rises=F RFO-DIIS coefs:    0.97598    0.02666   -0.00263
 Iteration  1 RMS(Cart)=  0.00007718 RMS(Int)=  0.00000000
 Iteration  2 RMS(Cart)=  0.00000000 RMS(Int)=  0.00000000
 ITry= 1 IFail=0 DXMaxC= 1.77D-04 DCOld= 1.00D+10 DXMaxT= 4.56D-01 DXLimC= 3.00D+00 Rises=F
 ClnCor:  largest displacement from symmetrization is 3.97D-14 for atom     2.
 Variable       Old X    -DE/DX   Delta X   Delta X   Delta X     New X
                                 (Linear)    (Quad)   (Total)
    R1        1.82782  -0.00007   0.00001  -0.00013  -0.00012   1.82770
    R2        2.64249   0.00001   0.00001   0.00002   0.00002   2.64251
    R3        2.08304   0.00002   0.00000   0.00006   0.00006   2.08310
    R4        2.09912   0.00002   0.00000   0.00006   0.00006   2.09917
    R5        2.09912   0.00002   0.00000   0.00006   0.00006   2.09917
    A1        1.89702  -0.00002  -0.00004  -0.00007  -0.00011   1.89691
    A2        1.87284  -0.00003  -0.00001  -0.00011  -0.00012   1.87271
    A3        1.97358   0.00001  -0.00002   0.00005   0.00003   1.97361
    A4        1.97358   0.00001  -0.00002   0.00005   0.00003   1.97361
    A5        1.87688   0.00001   0.00002   0.00003   0.00005   1.87693
    A6        1.87688   0.00001   0.00002   0.00003   0.00005   1.87693
    A7        1.88543  -0.00001   0.00002  -0.00006  -0.00004   1.88539
    D1        3.14159   0.00000   0.00000   0.00000   0.00000   3.14159
    D2       -1.07490   0.00000   0.00000   0.00000   0.00000  -1.07490
    D3        1.07490   0.00000   0.00000   0.00000   0.00000   1.07490
         Item               Value     Threshold  Converged?
 Maximum Force            0.000069     0.000450     YES
 RMS     Force            0.000023     0.000300     YES
 Maximum Displacement     0.000177     0.001800     YES
 RMS     Displacement     0.000077     0.001200     YES
 Predicted change in Energy=-9.706123D-09
 Optimization completed.
    -- Stationary point found.
                           ----------------------------
                           !   Optimized Parameters   !
                           ! (Angstroms and Degrees)  !
 --------------------------                            --------------------------
 ! Name  Definition              Value          Derivative Info.                !
 --------------------------------------------------------------------------------
 ! R1    R(1,2)                  0.9672         -DE/DX =   -0.0001              !
 ! R2    R(1,3)                  1.3983         -DE/DX =    0.0                 !
 ! R3    R(3,4)                  1.1023         -DE/DX =    0.0                 !
 ! R4    R(3,5)                  1.1108         -DE/DX =    0.0                 !
 ! R5    R(3,6)                  1.1108         -DE/DX =    0.0                 !
 ! A1    A(2,1,3)              108.6912         -DE/DX =    0.0                 !
 ! A2    A(1,3,4)              107.3056         -DE/DX =    0.0                 !
 ! A3    A(1,3,5)              113.0778         -DE/DX =    0.0                 !
 ! A4    A(1,3,6)              113.0778         -DE/DX =    0.0                 !
 ! A5    A(4,3,5)              107.5372         -DE/DX =    0.0                 !
 ! A6    A(4,3,6)              107.5372         -DE/DX =    0.0                 !
 ! A7    A(5,3,6)              108.027          -DE/DX =    0.0                 !
 ! D1    D(2,1,3,4)            180.0            -DE/DX =    0.0                 !
 ! D2    D(2,1,3,5)            -61.5872         -DE/DX =    0.0                 !
 ! D3    D(2,1,3,6)             61.5872         -DE/DX =    0.0                 !
 --------------------------------------------------------------------------------
 Lowest energy point so far.  Saving SCF results.
 GradGradGradGradGradGradGradGradGradGradGradGradGradGradGradGradGradGrad

 Largest change from initial coordinates is atom    5       0.070 Angstoms.
 Leave Link  103 at Wed Sep  2 15:38:20 2015, MaxMem=    33554432 cpu:         0.0
 (Enter /group/hpc-share/gaussian/2009D/g09/l202.exe)
                          Input orientation:                          
 ---------------------------------------------------------------------
 Center     Atomic      Atomic             Coordinates (Angstroms)
 Number     Number       Type             X           Y           Z
 ---------------------------------------------------------------------
      1          8           0       -0.019644    0.000000   -0.012880
      2          1           0       -0.032112    0.000000    0.954280
      3          6           0        1.310618    0.000000   -0.443892
      4          1           0        1.298172    0.000000   -1.546120
      5          1           0        1.874708    0.898813   -0.115528
      6          1           0        1.874708   -0.898813   -0.115528
 ---------------------------------------------------------------------
                    Distance matrix (angstroms):
                    1          2          3          4          5
     1  O    0.000000
     2  H    0.967241   0.000000
     3  C    1.398344   1.938507   0.000000
     4  H    2.021747   2.832253   1.102299   0.000000
     5  H    2.099279   2.363962   1.110804   1.785176   0.000000
     6  H    2.099279   2.363962   1.110804   1.785176   1.797626
                    6
     6  H    0.000000
 Stoichiometry    CH4O
 Framework group  CS[SG(CH2O),X(H2)]
 Deg. of freedom     8
 Full point group                 CS      NOp   2
 RotChk:  IX=0 Diff= 9.16D-16
 Largest Abelian subgroup         CS      NOp   2
 Largest concise Abelian subgroup CS      NOp   2
                         Standard orientation:                         
 ---------------------------------------------------------------------
 Center     Atomic      Atomic             Coordinates (Angstroms)
 Number     Number       Type             X           Y           Z
 ---------------------------------------------------------------------
      1          8           0       -0.046462   -0.748548    0.000000
      2          1           0        0.869766   -1.058517    0.000000
      3          6           0       -0.046462    0.649797    0.000000
      4          1           0       -1.098862    0.977696    0.000000
      5          1           0        0.439784    1.085211    0.898813
      6          1           0        0.439784    1.085211   -0.898813
 ---------------------------------------------------------------------
 Rotational constants (GHZ):    126.5096127     25.2179789     24.3222473
 Leave Link  202 at Wed Sep  2 15:38:20 2015, MaxMem=    33554432 cpu:         0.0
 (Enter /group/hpc-share/gaussian/2009D/g09/l601.exe)
 Copying SCF densities to generalized density rwf, IOpCl= 0 IROHF=0.

 **********************************************************************

            Population analysis using the SCF density.

 **********************************************************************

 Orbital symmetries:
       Occupied  (A') (A') (A') (A') (A') (A") (A') (A') (A")
       Virtual   (A') (A') (A') (A") (A') (A') (A") (A') (A') (A')
                 (A") (A') (A') (A') (A") (A') (A') (A") (A') (A")
                 (A') (A') (A") (A') (A") (A') (A')
 The electronic state is 1-A'.
 Alpha  occ. eigenvalues --  -19.19741 -10.26527  -1.03394  -0.69024  -0.52314
 Alpha  occ. eigenvalues --   -0.44971  -0.43698  -0.33995  -0.27941
 Alpha virt. eigenvalues --    0.06541   0.10737   0.14756   0.14961   0.21266
 Alpha virt. eigenvalues --    0.47526   0.49146   0.51190   0.62681   0.68903
 Alpha virt. eigenvalues --    0.70019   0.72454   0.74536   1.01138   1.03335
 Alpha virt. eigenvalues --    1.13791   1.45067   1.63183   1.73740   2.06861
 Alpha virt. eigenvalues --    2.07168   2.10628   2.62617   2.84104   2.91973
 Alpha virt. eigenvalues --    3.01290   3.36164
          Condensed to atoms (all electrons):
               1          2          3          4          5          6
     1  O    8.001727   0.270691   0.317564  -0.031841  -0.031818  -0.031818
     2  H    0.270691   0.452144  -0.036429   0.008404  -0.005612  -0.005612
     3  C    0.317564  -0.036429   4.727382   0.390190   0.382892   0.382892
     4  H   -0.031841   0.008404   0.390190   0.562667  -0.030162  -0.030162
     5  H   -0.031818  -0.005612   0.382892  -0.030162   0.623883  -0.045022
     6  H   -0.031818  -0.005612   0.382892  -0.030162  -0.045022   0.623883
 Mulliken charges:
               1
     1  O   -0.494505
     2  H    0.316414
     3  C   -0.164491
     4  H    0.130904
     5  H    0.105839
     6  H    0.105839
 Sum of Mulliken charges =   0.00000
 Mulliken charges with hydrogens summed into heavy atoms:
               1
     1  O   -0.178091
     3  C    0.178091
 Electronic spatial extent (au):  <R**2>=             83.6418
 Charge=              0.0000 electrons
 Dipole moment (field-independent basis, Debye):
    X=              1.4981    Y=              0.8403    Z=              0.0000  Tot=              1.7177
 Quadrupole moment (field-independent basis, Debye-Ang):
   XX=            -11.6474   YY=            -13.0784   ZZ=            -13.5923
   XY=             -2.1748   XZ=              0.0000   YZ=              0.0000
 Traceless Quadrupole moment (field-independent basis, Debye-Ang):
   XX=              1.1253   YY=             -0.3057   ZZ=             -0.8196
   XY=             -2.1748   XZ=              0.0000   YZ=              0.0000
 Octapole moment (field-independent basis, Debye-Ang**2):
  XXX=              1.1528  YYY=             -4.0478  ZZZ=              0.0000  XYY=              2.2560
  XXY=             -2.2908  XXZ=              0.0000  XZZ=              0.5840  YZZ=             -0.6992
  YYZ=              0.0000  XYZ=              0.0000
 Hexadecapole moment (field-independent basis, Debye-Ang**3):
 XXXX=            -18.6287 YYYY=            -59.8652 ZZZZ=            -19.1768 XXXY=             -0.9681
 XXXZ=              0.0000 YYYX=             -1.2714 YYYZ=              0.0000 ZZZX=              0.0000
 ZZZY=              0.0000 XXYY=            -11.9399 XXZZ=             -6.6335 YYZZ=            -13.4944
 XXYZ=              0.0000 YYXZ=              0.0000 ZZXY=              0.6957
 N-N= 4.042541463727D+01 E-N=-3.517250233755D+02  KE= 1.146603910262D+02
 Symmetry A'   KE= 1.080429197927D+02
 Symmetry A"   KE= 6.617471233527D+00
 No NMR shielding tensors so no spin-rotation constants.
 Leave Link  601 at Wed Sep  2 15:38:21 2015, MaxMem=    33554432 cpu:         1.3
 (Enter /group/hpc-share/gaussian/2009D/g09/l9999.exe)
 B after Tr=     0.023489    0.000000    0.011971
         Rot=    0.999985    0.000000   -0.005420    0.000000 Ang=  -0.62 deg.
 Final structure in terms of initial Z-matrix:
 O
 H,1,ho2
 C,1,co3,2,coh3
 H,3,hc4,1,hco4,2,dih4,0
 H,3,hc5,1,hco5,4,dih5,0
 H,3,hc6,1,hco6,4,dih6,0
      Variables:
 ho2=0.96724074
 co3=1.3983442
 coh3=108.69119314
 hc4=1.10229875
 hco4=107.30564739
 dih4=180.
 hc5=1.11080413
 hco5=113.07783778
 dih5=118.41281236
 hc6=1.11080413
 hco6=113.07783778
 dih6=-118.41281236
 1\1\GINC-HPC-CN12\FOpt\RPBE1PBE\Gen\C1H4O1\6498IVANOVM\02-Sep-2015\0\\
 #P PBE1PBE/gen opt\\methanol\\0,1\O,-0.0218466554,0.,-0.0205291201\H,-
 0.0343150963,0.,0.9466312536\C,1.3084148243,0.,-0.4515406085\H,1.29596
 87619,0.,-1.5537690918\H,1.8725053647,0.898812975,-0.1231766131\H,1.87
 25053647,-0.898812975,-0.1231766131\\Version=EM64L-G09RevD.01\State=1-
 A'\HF=-115.4816416\RMSD=6.803e-09\RMSF=2.401e-05\Dipole=0.49618,0.,0.4
 588032\Quadrupole=-1.0744344,-0.6093283,1.6837627,0.,-0.9977059,0.\PG=
 CS [SG(C1H2O1),X(H2)]\\@


 THIS CURIOUS WORLD WHICH WE INHABIT IS MORE WONDERFUL THAN IT IS CONVENIENT;
 MORE BEAUTIFUL THAN IT IS USEFUL;
 IT IS MORE TO BE ADMIRED THAN IT IS TO BE USED.

                                                                 -- THOREAU
 Job cpu time:       0 days  0 hours  0 minutes 55.7 seconds.
 File lengths (MBytes):  RWF=      5 Int=      0 D2E=      0 Chk=      1 Scr=      1
 Normal termination of Gaussian 09 at Wed Sep  2 15:38:21 2015.
