 Entering Gaussian System, Link 0=g09
 Input=methanol.com
 Output=methanol.log
 AtFile(1): methanol.zmat
             o
             h   1 ho2
             c    1 co3         2 coh3
             h    3 hc4         1 hco4          2 dih4
             h    3 hc5         1 hco5          4 dih5
             h    3 hc6         1 hco6          4 dih6
            
            ho2         0.950000
            co3         1.400000
            coh3        109.471
            hc4         1.089000
            hco4        109.471
            dih4        180.000
            hc5         1.089000
            hco5        109.471
            dih5        120.000
            hc6         1.089000
            hco6        109.471
            dih6        240.000
            
            
 Initial command:
 /group/hpc-share/gaussian/2009D/g09/l1.exe "/scratch/gaussian/g_methanol.com-809483.hn1.marqnet.mu.edu/Gau-4504.inp" -scrdir="/scratch/gaussian/g_methanol.com-809483.hn1.marqnet.mu.edu/"
 Entering Link 1 = /group/hpc-share/gaussian/2009D/g09/l1.exe PID=      4505.
  
 Copyright (c) 1988,1990,1992,1993,1995,1998,2003,2009,2013,
            Gaussian, Inc.  All Rights Reserved.
  
 This is part of the Gaussian(R) 09 program.  It is based on
 the Gaussian(R) 03 system (copyright 2003, Gaussian, Inc.),
 the Gaussian(R) 98 system (copyright 1998, Gaussian, Inc.),
 the Gaussian(R) 94 system (copyright 1995, Gaussian, Inc.),
 the Gaussian 92(TM) system (copyright 1992, Gaussian, Inc.),
 the Gaussian 90(TM) system (copyright 1990, Gaussian, Inc.),
 the Gaussian 88(TM) system (copyright 1988, Gaussian, Inc.),
 the Gaussian 86(TM) system (copyright 1986, Carnegie Mellon
 University), and the Gaussian 82(TM) system (copyright 1983,
 Carnegie Mellon University). Gaussian is a federally registered
 trademark of Gaussian, Inc.
  
 This software contains proprietary and confidential information,
 including trade secrets, belonging to Gaussian, Inc.
  
 This software is provided under written license and may be
 used, copied, transmitted, or stored only in accord with that
 written license.
  
 The following legend is applicable only to US Government
 contracts under FAR:
  
                    RESTRICTED RIGHTS LEGEND
  
 Use, reproduction and disclosure by the US Government is
 subject to restrictions as set forth in subparagraphs (a)
 and (c) of the Commercial Computer Software - Restricted
 Rights clause in FAR 52.227-19.
  
 Gaussian, Inc.
 340 Quinnipiac St., Bldg. 40, Wallingford CT 06492
  
  
 ---------------------------------------------------------------
 Warning -- This program may not be used in any manner that
 competes with the business of Gaussian, Inc. or will provide
 assistance to any competitor of Gaussian, Inc.  The licensee
 of this program is prohibited from giving any competitor of
 Gaussian, Inc. access to this program.  By using this program,
 the user acknowledges that Gaussian, Inc. is engaged in the
 business of creating and licensing software in the field of
 computational chemistry and represents and warrants to the
 licensee that it is not a competitor of Gaussian, Inc. and that
 it will not use this program in any manner prohibited above.
 ---------------------------------------------------------------
  

 Cite this work as:
 Gaussian 09, Revision D.01,
 M. J. Frisch, G. W. Trucks, H. B. Schlegel, G. E. Scuseria, 
 M. A. Robb, J. R. Cheeseman, G. Scalmani, V. Barone, B. Mennucci, 
 G. A. Petersson, H. Nakatsuji, M. Caricato, X. Li, H. P. Hratchian, 
 A. F. Izmaylov, J. Bloino, G. Zheng, J. L. Sonnenberg, M. Hada, 
 M. Ehara, K. Toyota, R. Fukuda, J. Hasegawa, M. Ishida, T. Nakajima, 
 Y. Honda, O. Kitao, H. Nakai, T. Vreven, J. A. Montgomery, Jr., 
 J. E. Peralta, F. Ogliaro, M. Bearpark, J. J. Heyd, E. Brothers, 
 K. N. Kudin, V. N. Staroverov, T. Keith, R. Kobayashi, J. Normand, 
 K. Raghavachari, A. Rendell, J. C. Burant, S. S. Iyengar, J. Tomasi, 
 M. Cossi, N. Rega, J. M. Millam, M. Klene, J. E. Knox, J. B. Cross, 
 V. Bakken, C. Adamo, J. Jaramillo, R. Gomperts, R. E. Stratmann, 
 O. Yazyev, A. J. Austin, R. Cammi, C. Pomelli, J. W. Ochterski, 
 R. L. Martin, K. Morokuma, V. G. Zakrzewski, G. A. Voth, 
 P. Salvador, J. J. Dannenberg, S. Dapprich, A. D. Daniels, 
 O. Farkas, J. B. Foresman, J. V. Ortiz, J. Cioslowski, 
 and D. J. Fox, Gaussian, Inc., Wallingford CT, 2013.
 
 ******************************************
 Gaussian 09:  EM64L-G09RevD.01 24-Apr-2013
                 2-Sep-2015 
 ******************************************
 %nproc=8
 Will use up to    8 processors via shared memory.
 %chk=methanol.chk
 ------------------------
 #P b3lyp/aug-cc-pvdz opt
 ------------------------
 1/14=-1,18=20,19=15,26=3,38=1/1,3;
 2/9=110,12=2,17=6,18=5,40=1/2;
 3/5=16,7=10,11=2,16=1,25=1,30=1,71=1,74=-5/1,2,3;
 4//1;
 5/5=2,38=5/2;
 6/7=2,8=2,9=2,10=2,28=1/1;
 7//1,2,3,16;
 1/14=-1,18=20,19=15,26=3/3(2);
 2/9=110/2;
 99//99;
 2/9=110/2;
 3/5=16,7=10,11=2,16=1,25=1,30=1,71=1,74=-5/1,2,3;
 4/5=5,16=3,69=1/1;
 5/5=2,38=5/2;
 7//1,2,3,16;
 1/14=-1,18=20,19=15,26=3/3(-5);
 2/9=110/2;
 6/7=2,8=2,9=2,10=2,19=2,28=1/1;
 99/9=1/99;
 Leave Link    1 at Wed Sep  2 14:53:40 2015, MaxMem=           0 cpu:         0.5
 (Enter /group/hpc-share/gaussian/2009D/g09/l101.exe)
 --------
 methanol
 --------
 Symbolic Z-matrix:
 Charge =  0 Multiplicity = 1
 o
 h                    1    ho2
 c                    1    co3      2    coh3
 h                    3    hc4      1    hco4     2    dih4     0
 h                    3    hc5      1    hco5     4    dih5     0
 h                    3    hc6      1    hco6     4    dih6     0
       Variables:
  ho2                   0.95                     
  co3                   1.4                      
  coh3                109.471                    
  hc4                   1.089                    
  hco4                109.471                    
  dih4                180.                       
  hc5                   1.089                    
  hco5                109.471                    
  dih5                120.                       
  hc6                   1.089                    
  hco6                109.471                    
  dih6                240.                       
 
     4 tetrahedral angles replaced.
 NAtoms=      6 NQM=        6 NQMF=       0 NMMI=      0 NMMIF=      0
                NMic=       0 NMicF=      0.
                    Isotopes and Nuclear Properties:
 (Nuclear quadrupole moments (NQMom) in fm**2, nuclear magnetic moments (NMagM)
  in nuclear magnetons)

  Atom         1           2           3           4           5           6
 IAtWgt=          16           1          12           1           1           1
 AtmWgt=  15.9949146   1.0078250  12.0000000   1.0078250   1.0078250   1.0078250
 NucSpn=           0           1           0           1           1           1
 AtZEff=   0.0000000   0.0000000   0.0000000   0.0000000   0.0000000   0.0000000
 NQMom=    0.0000000   0.0000000   0.0000000   0.0000000   0.0000000   0.0000000
 NMagM=    0.0000000   2.7928460   0.0000000   2.7928460   2.7928460   2.7928460
 AtZNuc=   8.0000000   1.0000000   6.0000000   1.0000000   1.0000000   1.0000000
 Leave Link  101 at Wed Sep  2 14:53:40 2015, MaxMem=    33554432 cpu:         1.1
 (Enter /group/hpc-share/gaussian/2009D/g09/l103.exe)

 GradGradGradGradGradGradGradGradGradGradGradGradGradGradGradGradGradGrad
 Berny optimization.
 Initialization pass.
                           ----------------------------
                           !    Initial Parameters    !
                           ! (Angstroms and Degrees)  !
 --------------------------                            --------------------------
 ! Name  Definition              Value          Derivative Info.                !
 --------------------------------------------------------------------------------
 ! R1    R(1,2)                  0.95           estimate D2E/DX2                !
 ! R2    R(1,3)                  1.4            estimate D2E/DX2                !
 ! R3    R(3,4)                  1.089          estimate D2E/DX2                !
 ! R4    R(3,5)                  1.089          estimate D2E/DX2                !
 ! R5    R(3,6)                  1.089          estimate D2E/DX2                !
 ! A1    A(2,1,3)              109.4712         estimate D2E/DX2                !
 ! A2    A(1,3,4)              109.4712         estimate D2E/DX2                !
 ! A3    A(1,3,5)              109.4712         estimate D2E/DX2                !
 ! A4    A(1,3,6)              109.4712         estimate D2E/DX2                !
 ! A5    A(4,3,5)              109.4712         estimate D2E/DX2                !
 ! A6    A(4,3,6)              109.4712         estimate D2E/DX2                !
 ! A7    A(5,3,6)              109.4712         estimate D2E/DX2                !
 ! D1    D(2,1,3,4)            180.0            estimate D2E/DX2                !
 ! D2    D(2,1,3,5)            -60.0            estimate D2E/DX2                !
 ! D3    D(2,1,3,6)             60.0            estimate D2E/DX2                !
 --------------------------------------------------------------------------------
 Trust Radius=3.00D-01 FncErr=1.00D-07 GrdErr=1.00D-06
 Number of steps in this run=     25 maximum allowed number of steps=    100.
 GradGradGradGradGradGradGradGradGradGradGradGradGradGradGradGradGradGrad

 Leave Link  103 at Wed Sep  2 14:53:40 2015, MaxMem=    33554432 cpu:         0.1
 (Enter /group/hpc-share/gaussian/2009D/g09/l202.exe)
                          Input orientation:                          
 ---------------------------------------------------------------------
 Center     Atomic      Atomic             Coordinates (Angstroms)
 Number     Number       Type             X           Y           Z
 ---------------------------------------------------------------------
      1          8           0        0.000000    0.000000    0.000000
      2          1           0        0.000000    0.000000    0.950000
      3          6           0        1.319933    0.000000   -0.466667
      4          1           0        1.319933    0.000000   -1.555667
      5          1           0        1.833292    0.889165   -0.103667
      6          1           0        1.833292   -0.889165   -0.103667
 ---------------------------------------------------------------------
                    Distance matrix (angstroms):
                    1          2          3          4          5
     1  O    0.000000
     2  H    0.950000   0.000000
     3  C    1.400000   1.936276   0.000000
     4  H    2.040177   2.832064   1.089000   0.000000
     5  H    2.040177   2.293859   1.089000   1.778330   0.000000
     6  H    2.040177   2.293859   1.089000   1.778330   1.778330
                    6
     6  H    0.000000
 Stoichiometry    CH4O
 Framework group  CS[SG(CH2O),X(H2)]
 Deg. of freedom     8
 Full point group                 CS      NOp   2
 Largest Abelian subgroup         CS      NOp   2
 Largest concise Abelian subgroup CS      NOp   2
                         Standard orientation:                         
 ---------------------------------------------------------------------
 Center     Atomic      Atomic             Coordinates (Angstroms)
 Number     Number       Type             X           Y           Z
 ---------------------------------------------------------------------
      1          8           0       -0.049759   -0.742907    0.000000
      2          1           0        0.845909   -1.059574    0.000000
      3          6           0       -0.049759    0.657093    0.000000
      4          1           0       -1.076478    1.020093    0.000000
      5          1           0        0.463600    1.020093    0.889165
      6          1           0        0.463600    1.020093   -0.889165
 ---------------------------------------------------------------------
 Rotational constants (GHZ):    128.9544830     25.5126691     24.6036790
 Leave Link  202 at Wed Sep  2 14:53:40 2015, MaxMem=    33554432 cpu:         0.0
 (Enter /group/hpc-share/gaussian/2009D/g09/l301.exe)
 Standard basis: Aug-CC-pVDZ (5D, 7F)
 Ernie: Thresh=  0.10000D-02 Tol=  0.10000D-05 Strict=F.
 Ernie:  4 primitive shells out of 78 were deleted.
 There are    59 symmetry adapted cartesian basis functions of A'  symmetry.
 There are    27 symmetry adapted cartesian basis functions of A"  symmetry.
 There are    55 symmetry adapted basis functions of A'  symmetry.
 There are    27 symmetry adapted basis functions of A"  symmetry.
    82 basis functions,   130 primitive gaussians,    86 cartesian basis functions
     9 alpha electrons        9 beta electrons
       nuclear repulsion energy        40.7519788861 Hartrees.
 IExCor=  402 DFT=T Ex+Corr=B3LYP ExCW=0 ScaHFX=  0.200000
 ScaDFX=  0.800000  0.720000  1.000000  0.810000 ScalE2=  1.000000  1.000000
 IRadAn=      0 IRanWt=     -1 IRanGd=            0 ICorTp=0 IEmpDi=  4
 NAtoms=    6 NActive=    6 NUniq=    5 SFac= 1.44D+00 NAtFMM=   60 NAOKFM=F Big=F
 Integral buffers will be    131072 words long.
 Raffenetti 2 integral format.
 Two-electron integral symmetry is turned on.
 Leave Link  301 at Wed Sep  2 14:53:40 2015, MaxMem=    33554432 cpu:         0.4
 (Enter /group/hpc-share/gaussian/2009D/g09/l302.exe)
 NPDir=0 NMtPBC=     1 NCelOv=     1 NCel=       1 NClECP=     1 NCelD=      1
         NCelK=      1 NCelE2=     1 NClLst=     1 CellRange=     0.0.
 One-electron integrals computed using PRISM.
 One-electron integral symmetry used in STVInt
 NBasis=    82 RedAO= T EigKep=  5.85D-04  NBF=    55    27
 NBsUse=    82 1.00D-06 EigRej= -1.00D+00 NBFU=    55    27
 Precomputing XC quadrature grid using
 IXCGrd= 4 IRadAn=           0 IRanWt=          -1 IRanGd=           0 AccXCQ= 0.00D+00.
 Generated NRdTot=       0 NPtTot=           0 NUsed=           0 NTot=          32
 NSgBfM=    86    86    86    86    86 MxSgAt=     6 MxSgA2=     6.
 Leave Link  302 at Wed Sep  2 14:53:41 2015, MaxMem=    33554432 cpu:         1.6
 (Enter /group/hpc-share/gaussian/2009D/g09/l303.exe)
 DipDrv:  MaxL=1.
 Leave Link  303 at Wed Sep  2 14:53:41 2015, MaxMem=    33554432 cpu:         0.2
 (Enter /group/hpc-share/gaussian/2009D/g09/l401.exe)
 ExpMin= 2.97D-02 ExpMax= 1.17D+04 ExpMxC= 4.01D+02 IAcc=3 IRadAn=         5 AccDes= 0.00D+00
 Harris functional with IExCor=  402 and IRadAn=       5 diagonalized for initial guess.
 HarFok:  IExCor=  402 AccDes= 0.00D+00 IRadAn=         5 IDoV= 1 UseB2=F ITyADJ=14
 ICtDFT=  3500011 ScaDFX=  1.000000  1.000000  1.000000  1.000000
 FoFCou: FMM=F IPFlag=           0 FMFlag=      100000 FMFlg1=           0
         NFxFlg=           0 DoJE=T BraDBF=F KetDBF=T FulRan=T
         wScrn=  0.000000 ICntrl=     500 IOpCl=  0 I1Cent=   200000004 NGrid=           0
         NMat0=    1 NMatS0=      1 NMatT0=    0 NMatD0=    1 NMtDS0=    0 NMtDT0=    0
 Petite list used in FoFCou.
 Harris En= -115.764709414225    
 JPrj=0 DoOrth=F DoCkMO=F.
 Initial guess orbital symmetries:
       Occupied  (A') (A') (A') (A') (A') (A") (A') (A') (A")
       Virtual   (A') (A') (A') (A") (A') (A') (A") (A') (A') (A')
                 (A") (A') (A') (A") (A') (A') (A") (A') (A') (A')
                 (A") (A") (A') (A") (A') (A") (A') (A') (A') (A')
                 (A") (A') (A") (A') (A') (A") (A') (A') (A') (A")
                 (A') (A") (A') (A") (A') (A') (A') (A") (A") (A')
                 (A") (A') (A') (A") (A') (A") (A') (A") (A') (A')
                 (A') (A") (A') (A') (A") (A') (A') (A') (A") (A')
                 (A") (A') (A')
 The electronic state of the initial guess is 1-A'.
 Leave Link  401 at Wed Sep  2 14:53:41 2015, MaxMem=    33554432 cpu:         1.7
 (Enter /group/hpc-share/gaussian/2009D/g09/l502.exe)
 Closed shell SCF:
 Using DIIS extrapolation, IDIIS=  1040.
 Integral symmetry usage will be decided dynamically.
 Keep R1 ints in memory in symmetry-blocked form, NReq=8785626.
 IVT=       42198 IEndB=       42198 NGot=    33554432 MDV=    30560795
 LenX=    30560795 LenY=    30552958
 Requested convergence on RMS density matrix=1.00D-08 within 128 cycles.
 Requested convergence on MAX density matrix=1.00D-06.
 Requested convergence on             energy=1.00D-06.
 No special actions if energy rises.
 FoFCou: FMM=F IPFlag=           0 FMFlag=           0 FMFlg1=           0
         NFxFlg=           0 DoJE=F BraDBF=F KetDBF=F FulRan=T
         wScrn=  0.000000 ICntrl=     600 IOpCl=  0 I1Cent=           0 NGrid=           0
         NMat0=    1 NMatS0=   3403 NMatT0=    0 NMatD0=    1 NMtDS0=    0 NMtDT0=    0
 Petite list used in FoFCou.

 Cycle   1  Pass 1  IDiag  1:
 E= -115.660686021867    
 DIIS: error= 3.05D-02 at cycle   1 NSaved=   1.
 NSaved= 1 IEnMin= 1 EnMin= -115.660686021867     IErMin= 1 ErrMin= 3.05D-02
 ErrMax= 3.05D-02  0.00D+00 EMaxC= 1.00D-01 BMatC= 8.73D-02 BMatP= 8.73D-02
 IDIUse=3 WtCom= 6.95D-01 WtEn= 3.05D-01
 Coeff-Com:  0.100D+01
 Coeff-En:   0.100D+01
 Coeff:      0.100D+01
 Gap=     0.166 Goal=   None    Shift=    0.000
 GapD=    0.166 DampG=1.000 DampE=0.500 DampFc=0.5000 IDamp=-1.
 Damping current iteration by 5.00D-01
 RMSDP=7.04D-03 MaxDP=1.44D-01              OVMax= 1.87D-01

 Cycle   2  Pass 1  IDiag  1:
 E= -115.685795604223     Delta-E=       -0.025109582357 Rises=F Damp=T
 DIIS: error= 1.30D-02 at cycle   2 NSaved=   2.
 NSaved= 2 IEnMin= 2 EnMin= -115.685795604223     IErMin= 2 ErrMin= 1.30D-02
 ErrMax= 1.30D-02  0.00D+00 EMaxC= 1.00D-01 BMatC= 8.66D-03 BMatP= 8.73D-02
 IDIUse=3 WtCom= 8.70D-01 WtEn= 1.30D-01
 Coeff-Com:  0.196D+00 0.804D+00
 Coeff-En:   0.309D+00 0.691D+00
 Coeff:      0.211D+00 0.789D+00
 Gap=     0.271 Goal=   None    Shift=    0.000
 RMSDP=2.84D-03 MaxDP=6.13D-02 DE=-2.51D-02 OVMax= 1.21D-01

 Cycle   3  Pass 1  IDiag  1:
 E= -115.738641342658     Delta-E=       -0.052845738434 Rises=F Damp=F
 DIIS: error= 5.33D-03 at cycle   3 NSaved=   3.
 NSaved= 3 IEnMin= 3 EnMin= -115.738641342658     IErMin= 3 ErrMin= 5.33D-03
 ErrMax= 5.33D-03  0.00D+00 EMaxC= 1.00D-01 BMatC= 2.37D-03 BMatP= 8.66D-03
 IDIUse=3 WtCom= 9.47D-01 WtEn= 5.33D-02
 Coeff-Com:  0.590D-01 0.361D+00 0.580D+00
 Coeff-En:   0.000D+00 0.000D+00 0.100D+01
 Coeff:      0.559D-01 0.341D+00 0.603D+00
 Gap=     0.267 Goal=   None    Shift=    0.000
 RMSDP=5.60D-04 MaxDP=1.34D-02 DE=-5.28D-02 OVMax= 1.54D-02

 Cycle   4  Pass 1  IDiag  1:
 E= -115.740362639811     Delta-E=       -0.001721297153 Rises=F Damp=F
 DIIS: error= 1.86D-03 at cycle   4 NSaved=   4.
 NSaved= 4 IEnMin= 4 EnMin= -115.740362639811     IErMin= 4 ErrMin= 1.86D-03
 ErrMax= 1.86D-03  0.00D+00 EMaxC= 1.00D-01 BMatC= 3.28D-04 BMatP= 2.37D-03
 IDIUse=3 WtCom= 9.81D-01 WtEn= 1.86D-02
 Coeff-Com:  0.518D-02 0.785D-01 0.291D+00 0.625D+00
 Coeff-En:   0.000D+00 0.000D+00 0.731D-01 0.927D+00
 Coeff:      0.508D-02 0.770D-01 0.287D+00 0.631D+00
 Gap=     0.267 Goal=   None    Shift=    0.000
 RMSDP=1.77D-04 MaxDP=4.23D-03 DE=-1.72D-03 OVMax= 4.84D-03

 Cycle   5  Pass 1  IDiag  1:
 E= -115.740646703144     Delta-E=       -0.000284063333 Rises=F Damp=F
 DIIS: error= 2.09D-04 at cycle   5 NSaved=   5.
 NSaved= 5 IEnMin= 5 EnMin= -115.740646703144     IErMin= 5 ErrMin= 2.09D-04
 ErrMax= 2.09D-04  0.00D+00 EMaxC= 1.00D-01 BMatC= 5.37D-06 BMatP= 3.28D-04
 IDIUse=3 WtCom= 9.98D-01 WtEn= 2.09D-03
 Coeff-Com: -0.205D-02 0.370D-03 0.403D-01 0.173D+00 0.789D+00
 Coeff-En:   0.000D+00 0.000D+00 0.000D+00 0.000D+00 0.100D+01
 Coeff:     -0.204D-02 0.370D-03 0.402D-01 0.172D+00 0.789D+00
 Gap=     0.267 Goal=   None    Shift=    0.000
 RMSDP=2.53D-05 MaxDP=3.41D-04 DE=-2.84D-04 OVMax= 5.28D-04

 Cycle   6  Pass 1  IDiag  1:
 E= -115.740650933880     Delta-E=       -0.000004230737 Rises=F Damp=F
 DIIS: error= 1.14D-05 at cycle   6 NSaved=   6.
 NSaved= 6 IEnMin= 6 EnMin= -115.740650933880     IErMin= 6 ErrMin= 1.14D-05
 ErrMax= 1.14D-05  0.00D+00 EMaxC= 1.00D-01 BMatC= 1.11D-08 BMatP= 5.37D-06
 IDIUse=1 WtCom= 1.00D+00 WtEn= 0.00D+00
 Coeff-Com:  0.635D-04-0.728D-03 0.396D-03 0.557D-02 0.451D-01 0.950D+00
 Coeff:      0.635D-04-0.728D-03 0.396D-03 0.557D-02 0.451D-01 0.950D+00
 Gap=     0.267 Goal=   None    Shift=    0.000
 RMSDP=1.60D-06 MaxDP=2.81D-05 DE=-4.23D-06 OVMax= 5.06D-05

 Cycle   7  Pass 1  IDiag  1:
 E= -115.740650945422     Delta-E=       -0.000000011542 Rises=F Damp=F
 DIIS: error= 1.84D-06 at cycle   7 NSaved=   7.
 NSaved= 7 IEnMin= 7 EnMin= -115.740650945422     IErMin= 7 ErrMin= 1.84D-06
 ErrMax= 1.84D-06  0.00D+00 EMaxC= 1.00D-01 BMatC= 2.94D-10 BMatP= 1.11D-08
 IDIUse=1 WtCom= 1.00D+00 WtEn= 0.00D+00
 Coeff-Com:  0.434D-04-0.121D-03-0.478D-03-0.105D-02-0.332D-02 0.168D+00
 Coeff-Com:  0.837D+00
 Coeff:      0.434D-04-0.121D-03-0.478D-03-0.105D-02-0.332D-02 0.168D+00
 Coeff:      0.837D+00
 Gap=     0.267 Goal=   None    Shift=    0.000
 RMSDP=3.04D-07 MaxDP=4.94D-06 DE=-1.15D-08 OVMax= 7.50D-06

 Cycle   8  Pass 1  IDiag  1:
 E= -115.740650945777     Delta-E=       -0.000000000354 Rises=F Damp=F
 DIIS: error= 3.12D-07 at cycle   8 NSaved=   8.
 NSaved= 8 IEnMin= 8 EnMin= -115.740650945777     IErMin= 8 ErrMin= 3.12D-07
 ErrMax= 3.12D-07  0.00D+00 EMaxC= 1.00D-01 BMatC= 1.08D-11 BMatP= 2.94D-10
 IDIUse=1 WtCom= 1.00D+00 WtEn= 0.00D+00
 Coeff-Com:  0.495D-05 0.926D-06-0.912D-04-0.271D-03-0.178D-02 0.453D-02
 Coeff-Com:  0.167D+00 0.831D+00
 Coeff:      0.495D-05 0.926D-06-0.912D-04-0.271D-03-0.178D-02 0.453D-02
 Coeff:      0.167D+00 0.831D+00
 Gap=     0.267 Goal=   None    Shift=    0.000
 RMSDP=4.82D-08 MaxDP=8.58D-07 DE=-3.54D-10 OVMax= 1.22D-06

 Cycle   9  Pass 1  IDiag  1:
 E= -115.740650945787     Delta-E=       -0.000000000010 Rises=F Damp=F
 DIIS: error= 6.29D-08 at cycle   9 NSaved=   9.
 NSaved= 9 IEnMin= 9 EnMin= -115.740650945787     IErMin= 9 ErrMin= 6.29D-08
 ErrMax= 6.29D-08  0.00D+00 EMaxC= 1.00D-01 BMatC= 4.96D-13 BMatP= 1.08D-11
 IDIUse=1 WtCom= 1.00D+00 WtEn= 0.00D+00
 Coeff-Com: -0.535D-06 0.386D-05-0.167D-04-0.613D-04-0.441D-03-0.427D-02
 Coeff-Com:  0.177D-01 0.200D+00 0.787D+00
 Coeff:     -0.535D-06 0.386D-05-0.167D-04-0.613D-04-0.441D-03-0.427D-02
 Coeff:      0.177D-01 0.200D+00 0.787D+00
 Gap=     0.267 Goal=   None    Shift=    0.000
 RMSDP=8.99D-09 MaxDP=1.91D-07 DE=-1.03D-11 OVMax= 2.25D-07

 SCF Done:  E(RB3LYP) =  -115.740650946     A.U. after    9 cycles
            NFock=  9  Conv=0.90D-08     -V/T= 2.0058
 KE= 1.150728360328D+02 PE=-3.527724544248D+02 EE= 8.120698856014D+01
 Leave Link  502 at Wed Sep  2 14:53:42 2015, MaxMem=    33554432 cpu:         5.2
 (Enter /group/hpc-share/gaussian/2009D/g09/l601.exe)
 Copying SCF densities to generalized density rwf, IOpCl= 0 IROHF=0.

 **********************************************************************

            Population analysis using the SCF density.

 **********************************************************************

 Orbital symmetries:
       Occupied  (A') (A') (A') (A') (A') (A") (A') (A') (A")
       Virtual   (A') (A') (A") (A') (A') (A') (A") (A') (A') (A')
                 (A") (A') (A") (A') (A') (A') (A") (A') (A') (A")
                 (A') (A") (A") (A') (A') (A') (A") (A') (A') (A")
                 (A') (A') (A") (A') (A') (A") (A') (A') (A') (A")
                 (A") (A') (A') (A") (A') (A') (A") (A') (A") (A')
                 (A") (A') (A') (A") (A') (A") (A') (A") (A') (A')
                 (A') (A") (A') (A') (A') (A") (A') (A') (A") (A')
                 (A") (A') (A')
 The electronic state is 1-A'.
 Alpha  occ. eigenvalues --  -19.14958 -10.22749  -1.03571  -0.69032  -0.51824
 Alpha  occ. eigenvalues --   -0.44992  -0.43868  -0.34124  -0.28086
 Alpha virt. eigenvalues --   -0.01420   0.00751   0.02457   0.03001   0.06402
 Alpha virt. eigenvalues --    0.08468   0.10181   0.10966   0.12978   0.14548
 Alpha virt. eigenvalues --    0.15323   0.16502   0.16659   0.20165   0.22448
 Alpha virt. eigenvalues --    0.27548   0.29192   0.31125   0.32847   0.32951
 Alpha virt. eigenvalues --    0.34095   0.35770   0.40446   0.42221   0.45482
 Alpha virt. eigenvalues --    0.47456   0.48274   0.50163   0.52348   0.55153
 Alpha virt. eigenvalues --    0.55297   0.57861   0.60371   0.60718   0.73785
 Alpha virt. eigenvalues --    0.76862   0.81819   0.82489   0.88921   0.98699
 Alpha virt. eigenvalues --    1.02542   1.02898   1.14123   1.19295   1.27626
 Alpha virt. eigenvalues --    1.39429   1.48017   1.48020   1.50809   1.53582
 Alpha virt. eigenvalues --    1.61447   1.66625   1.83063   1.83141   1.84812
 Alpha virt. eigenvalues --    1.90635   1.93774   1.99716   2.03915   2.11269
 Alpha virt. eigenvalues --    2.22194   2.35837   2.39933   2.48108   2.57248
 Alpha virt. eigenvalues --    2.57418   2.72046   2.82683   3.35289   3.36879
 Alpha virt. eigenvalues --    3.39896   3.50241   3.88307
          Condensed to atoms (all electrons):
               1          2          3          4          5          6
     1  O    8.056676   0.293924   0.164627  -0.158280  -0.002907  -0.002907
     2  H    0.293924   0.722762  -0.057833   0.049149  -0.025525  -0.025525
     3  C    0.164627  -0.057833   3.788058   0.299458   0.254125   0.254125
     4  H   -0.158280   0.049149   0.299458   1.794274  -0.313551  -0.313551
     5  H   -0.002907  -0.025525   0.254125  -0.313551   1.654814  -0.251029
     6  H   -0.002907  -0.025525   0.254125  -0.313551  -0.251029   1.654814
 Mulliken charges:
               1
     1  O   -0.351134
     2  H    0.043050
     3  C    1.297440
     4  H   -0.357500
     5  H   -0.315928
     6  H   -0.315928
 Sum of Mulliken charges =   0.00000
 Mulliken charges with hydrogens summed into heavy atoms:
               1
     1  O   -0.308084
     3  C    0.308084
 Electronic spatial extent (au):  <R**2>=             83.6733
 Charge=              0.0000 electrons
 Dipole moment (field-independent basis, Debye):
    X=              1.3495    Y=              0.9008    Z=              0.0000  Tot=              1.6225
 Quadrupole moment (field-independent basis, Debye-Ang):
   XX=            -11.9706   YY=            -13.7270   ZZ=            -13.9789
   XY=             -2.1866   XZ=              0.0000   YZ=              0.0000
 Traceless Quadrupole moment (field-independent basis, Debye-Ang):
   XX=              1.2549   YY=             -0.5015   ZZ=             -0.7534
   XY=             -2.1866   XZ=              0.0000   YZ=              0.0000
 Octapole moment (field-independent basis, Debye-Ang**2):
  XXX=              0.9946  YYY=             -3.9289  ZZZ=              0.0000  XYY=              2.1272
  XXY=             -1.9791  XXZ=              0.0000  XZZ=              0.6935  YZZ=             -0.2650
  YYZ=              0.0000  XYZ=              0.0000
 Hexadecapole moment (field-independent basis, Debye-Ang**3):
 XXXX=            -20.6364 YYYY=            -64.2843 ZZZZ=            -21.4114 XXXY=             -1.1935
 XXXZ=              0.0000 YYYX=             -1.8401 YYYZ=              0.0000 ZZZX=              0.0000
 ZZZY=              0.0000 XXYY=            -12.8872 XXZZ=             -7.3375 YYZZ=            -15.1482
 XXYZ=              0.0000 YYXZ=              0.0000 ZZXY=              0.8437
 N-N= 4.075197888612D+01 E-N=-3.527724538366D+02  KE= 1.150728360328D+02
 Symmetry A'   KE= 1.085043721149D+02
 Symmetry A"   KE= 6.568463917828D+00
 No NMR shielding tensors so no spin-rotation constants.
 Leave Link  601 at Wed Sep  2 14:53:42 2015, MaxMem=    33554432 cpu:         0.9
 (Enter /group/hpc-share/gaussian/2009D/g09/l701.exe)
 Compute integral first derivatives.
 ... and contract with generalized density number  0.
 Leave Link  701 at Wed Sep  2 14:53:42 2015, MaxMem=    33554432 cpu:         1.0
 (Enter /group/hpc-share/gaussian/2009D/g09/l702.exe)
 L702 exits ... SP integral derivatives will be done elsewhere.
 Leave Link  702 at Wed Sep  2 14:53:42 2015, MaxMem=    33554432 cpu:         0.2
 (Enter /group/hpc-share/gaussian/2009D/g09/l703.exe)
 Compute integral first derivatives, UseDBF=F ICtDFT=           0.
 Integral derivatives from FoFJK, PRISM(SPDF).
 Calling FoFJK, ICntrl=      2127 FMM=F ISym2X=1 I1Cent= 0 IOpClX= 0 NMat=1 NMatS=1 NMatT=0.
 FoFJK:  IHMeth= 1 ICntrl=    2127 DoSepK=F KAlg= 0 I1Cent=   0 FoldK=F
 IRaf=         0 NMat=   1 IRICut=       1 DoRegI=T DoRafI=F ISym2E= 1.
 FoFCou: FMM=F IPFlag=           0 FMFlag=      100000 FMFlg1=         800
         NFxFlg=           0 DoJE=F BraDBF=F KetDBF=F FulRan=T
         wScrn=  0.000000 ICntrl=    2127 IOpCl=  0 I1Cent=           0 NGrid=           0
         NMat0=    1 NMatS0=      1 NMatT0=    0 NMatD0=    1 NMtDS0=    0 NMtDT0=    0
 Petite list used in FoFCou.
 Leave Link  703 at Wed Sep  2 14:53:43 2015, MaxMem=    33554432 cpu:         2.9
 (Enter /group/hpc-share/gaussian/2009D/g09/l716.exe)
 Dipole        = 5.30930070D-01 3.54407990D-01-4.44089210D-16
 ***** Axes restored to original set *****
 -------------------------------------------------------------------
 Center     Atomic                   Forces (Hartrees/Bohr)
 Number     Number              X              Y              Z
 -------------------------------------------------------------------
      1        8          -0.023392832    0.000000000   -0.013194475
      2        1           0.000173369    0.000000000    0.013381740
      3        6           0.006857860    0.000000000    0.005815291
      4        1          -0.002564922    0.000000000   -0.004481142
      5        1           0.009463263    0.006803736   -0.000760707
      6        1           0.009463263   -0.006803736   -0.000760707
 -------------------------------------------------------------------
 Cartesian Forces:  Max     0.023392832 RMS     0.008435286
 Leave Link  716 at Wed Sep  2 14:53:43 2015, MaxMem=    33554432 cpu:         0.2
 (Enter /group/hpc-share/gaussian/2009D/g09/l103.exe)

 GradGradGradGradGradGradGradGradGradGradGradGradGradGradGradGradGradGrad
 Berny optimization.
 FormGI is forming the generalized inverse of G from B-inverse, IUseBI=4.
 Internal  Forces:  Max     0.021955741 RMS     0.008845879
 Search for a local minimum.
 Step number   1 out of a maximum of   25
 All quantities printed in internal units (Hartrees-Bohrs-Radians)
 RMS Force = .88459D-02 SwitMx=.10000D-02 MixMth= 1
 Mixed Optimization -- RFO/linear search
 Second derivative matrix not updated -- first step.
 The second derivative matrix:
                          R1        R2        R3        R4        R5
           R1           0.57681
           R2           0.00000   0.45621
           R3           0.00000   0.00000   0.34928
           R4           0.00000   0.00000   0.00000   0.34928
           R5           0.00000   0.00000   0.00000   0.00000   0.34928
           A1           0.00000   0.00000   0.00000   0.00000   0.00000
           A2           0.00000   0.00000   0.00000   0.00000   0.00000
           A3           0.00000   0.00000   0.00000   0.00000   0.00000
           A4           0.00000   0.00000   0.00000   0.00000   0.00000
           A5           0.00000   0.00000   0.00000   0.00000   0.00000
           A6           0.00000   0.00000   0.00000   0.00000   0.00000
           A7           0.00000   0.00000   0.00000   0.00000   0.00000
           D1           0.00000   0.00000   0.00000   0.00000   0.00000
           D2           0.00000   0.00000   0.00000   0.00000   0.00000
           D3           0.00000   0.00000   0.00000   0.00000   0.00000
                          A1        A2        A3        A4        A5
           A1           0.16000
           A2           0.00000   0.16000
           A3           0.00000   0.00000   0.16000
           A4           0.00000   0.00000   0.00000   0.16000
           A5           0.00000   0.00000   0.00000   0.00000   0.16000
           A6           0.00000   0.00000   0.00000   0.00000   0.00000
           A7           0.00000   0.00000   0.00000   0.00000   0.00000
           D1           0.00000   0.00000   0.00000   0.00000   0.00000
           D2           0.00000   0.00000   0.00000   0.00000   0.00000
           D3           0.00000   0.00000   0.00000   0.00000   0.00000
                          A6        A7        D1        D2        D3
           A6           0.16000
           A7           0.00000   0.16000
           D1           0.00000   0.00000   0.01692
           D2           0.00000   0.00000   0.00000   0.01692
           D3           0.00000   0.00000   0.00000   0.00000   0.01692
 ITU=  0
     Eigenvalues ---    0.01692   0.10497   0.10497   0.16000   0.16000
     Eigenvalues ---    0.16000   0.16000   0.34928   0.34928   0.34928
     Eigenvalues ---    0.45621   0.57681
 RFO step:  Lambda=-3.96300611D-03 EMin= 1.69178031D-02
 Linear search not attempted -- first point.
 Iteration  1 RMS(Cart)=  0.05046259 RMS(Int)=  0.00161342
 Iteration  2 RMS(Cart)=  0.00102835 RMS(Int)=  0.00115276
 Iteration  3 RMS(Cart)=  0.00000228 RMS(Int)=  0.00115276
 Iteration  4 RMS(Cart)=  0.00000001 RMS(Int)=  0.00115276
 ITry= 1 IFail=0 DXMaxC= 9.68D-02 DCOld= 1.00D+10 DXMaxT= 3.00D-01 DXLimC= 3.00D+00 Rises=F
 ClnCor:  largest displacement from symmetrization is 8.34D-13 for atom     6.
 Variable       Old X    -DE/DX   Delta X   Delta X   Delta X     New X
                                 (Linear)    (Quad)   (Total)
    R1        1.79524   0.01338   0.00000   0.02304   0.02304   1.81828
    R2        2.64562   0.02196   0.00000   0.04771   0.04771   2.69333
    R3        2.05791   0.00448   0.00000   0.01268   0.01268   2.07060
    R4        2.05791   0.00976   0.00000   0.02764   0.02764   2.08555
    R5        2.05791   0.00976   0.00000   0.02764   0.02764   2.08555
    A1        1.91063  -0.00030   0.00000  -0.00186  -0.00186   1.90877
    A2        1.91063  -0.00839   0.00000  -0.05773  -0.05731   1.85332
    A3        1.91063   0.00934   0.00000   0.06024   0.05895   1.96958
    A4        1.91063   0.00934   0.00000   0.06024   0.05895   1.96958
    A5        1.91063  -0.00312   0.00000  -0.02559  -0.02519   1.88545
    A6        1.91063  -0.00312   0.00000  -0.02559  -0.02519   1.88545
    A7        1.91063  -0.00404   0.00000  -0.01156  -0.01407   1.89656
    D1        3.14159   0.00000   0.00000   0.00000   0.00000   3.14159
    D2       -1.04720  -0.00325   0.00000  -0.02981  -0.03202  -1.07922
    D3        1.04720   0.00325   0.00000   0.02981   0.03202   1.07922
         Item               Value     Threshold  Converged?
 Maximum Force            0.021956     0.000450     NO 
 RMS     Force            0.008846     0.000300     NO 
 Maximum Displacement     0.096818     0.001800     NO 
 RMS     Displacement     0.050400     0.001200     NO 
 Predicted change in Energy=-2.036429D-03
 Lowest energy point so far.  Saving SCF results.
 GradGradGradGradGradGradGradGradGradGradGradGradGradGradGradGradGradGrad

 Leave Link  103 at Wed Sep  2 14:53:43 2015, MaxMem=    33554432 cpu:         0.0
 (Enter /group/hpc-share/gaussian/2009D/g09/l202.exe)
                          Input orientation:                          
 ---------------------------------------------------------------------
 Center     Atomic      Atomic             Coordinates (Angstroms)
 Number     Number       Type             X           Y           Z
 ---------------------------------------------------------------------
      1          8           0       -0.028298    0.000000   -0.005522
      2          1           0       -0.051234    0.000000    0.956395
      3          6           0        1.327204    0.000000   -0.445918
      4          1           0        1.292573    0.000000   -1.541082
      5          1           0        1.883102    0.896602   -0.121770
      6          1           0        1.883102   -0.896602   -0.121770
 ---------------------------------------------------------------------
                    Distance matrix (angstroms):
                    1          2          3          4          5
     1  O    0.000000
     2  H    0.962190   0.000000
     3  C    1.425248   1.966360   0.000000
     4  H    2.025498   2.836055   1.095712   0.000000
     5  H    2.114440   2.389140   1.103626   1.779626   0.000000
     6  H    2.114440   2.389140   1.103626   1.779626   1.793204
                    6
     6  H    0.000000
 Stoichiometry    CH4O
 Framework group  CS[SG(CH2O),X(H2)]
 Deg. of freedom     8
 Full point group                 CS      NOp   2
 RotChk:  IX=0 Diff= 3.63D-02
 Largest Abelian subgroup         CS      NOp   2
 Largest concise Abelian subgroup CS      NOp   2
                         Standard orientation:                         
 ---------------------------------------------------------------------
 Center     Atomic      Atomic             Coordinates (Angstroms)
 Number     Number       Type             X           Y           Z
 ---------------------------------------------------------------------
      1          8           0       -0.045311   -0.759485    0.000000
      2          1           0        0.862445   -1.078527    0.000000
      3          6           0       -0.045311    0.665764    0.000000
      4          1           0       -1.097582    0.971228    0.000000
      5          1           0        0.434745    1.094298    0.896602
      6          1           0        0.434745    1.094298   -0.896602
 ---------------------------------------------------------------------
 Rotational constants (GHZ):    127.5922329     24.5106368     23.6834460
 Leave Link  202 at Wed Sep  2 14:53:43 2015, MaxMem=    33554432 cpu:         0.0
 (Enter /group/hpc-share/gaussian/2009D/g09/l301.exe)
 Standard basis: Aug-CC-pVDZ (5D, 7F)
 Ernie: Thresh=  0.10000D-02 Tol=  0.10000D-05 Strict=F.
 Ernie:  4 primitive shells out of 78 were deleted.
 There are    59 symmetry adapted cartesian basis functions of A'  symmetry.
 There are    27 symmetry adapted cartesian basis functions of A"  symmetry.
 There are    55 symmetry adapted basis functions of A'  symmetry.
 There are    27 symmetry adapted basis functions of A"  symmetry.
    82 basis functions,   130 primitive gaussians,    86 cartesian basis functions
     9 alpha electrons        9 beta electrons
       nuclear repulsion energy        40.1016051666 Hartrees.
 IExCor=  402 DFT=T Ex+Corr=B3LYP ExCW=0 ScaHFX=  0.200000
 ScaDFX=  0.800000  0.720000  1.000000  0.810000 ScalE2=  1.000000  1.000000
 IRadAn=      0 IRanWt=     -1 IRanGd=            0 ICorTp=0 IEmpDi=  4
 NAtoms=    6 NActive=    6 NUniq=    5 SFac= 1.44D+00 NAtFMM=   60 NAOKFM=F Big=F
 Integral buffers will be    131072 words long.
 Raffenetti 2 integral format.
 Two-electron integral symmetry is turned on.
 Leave Link  301 at Wed Sep  2 14:53:43 2015, MaxMem=    33554432 cpu:         0.4
 (Enter /group/hpc-share/gaussian/2009D/g09/l302.exe)
 NPDir=0 NMtPBC=     1 NCelOv=     1 NCel=       1 NClECP=     1 NCelD=      1
         NCelK=      1 NCelE2=     1 NClLst=     1 CellRange=     0.0.
 One-electron integrals computed using PRISM.
 One-electron integral symmetry used in STVInt
 NBasis=    82 RedAO= T EigKep=  6.17D-04  NBF=    55    27
 NBsUse=    82 1.00D-06 EigRej= -1.00D+00 NBFU=    55    27
 Precomputing XC quadrature grid using
 IXCGrd= 4 IRadAn=           0 IRanWt=          -1 IRanGd=           0 AccXCQ= 0.00D+00.
 Generated NRdTot=       0 NPtTot=           0 NUsed=           0 NTot=          32
 NSgBfM=    86    86    86    86    86 MxSgAt=     6 MxSgA2=     6.
 Leave Link  302 at Wed Sep  2 14:53:43 2015, MaxMem=    33554432 cpu:         1.8
 (Enter /group/hpc-share/gaussian/2009D/g09/l303.exe)
 DipDrv:  MaxL=1.
 Leave Link  303 at Wed Sep  2 14:53:43 2015, MaxMem=    33554432 cpu:         0.1
 (Enter /group/hpc-share/gaussian/2009D/g09/l401.exe)
 Initial guess from the checkpoint file:  "methanol.chk"
 B after Tr=     0.000000    0.000000    0.000000
         Rot=    0.999970    0.000000    0.000000   -0.007804 Ang=  -0.89 deg.
 Guess basis will be translated and rotated to current coordinates.
 JPrj=2 DoOrth=T DoCkMO=T.
 Initial guess orbital symmetries:
       Occupied  (A') (A') (A') (A') (A') (A") (A') (A') (A")
       Virtual   (A') (A') (A') (A') (A') (A') (A') (A') (A') (A')
                 (A') (A') (A') (A') (A') (A') (A') (A') (A') (A')
                 (A') (A') (A') (A') (A') (A') (A') (A') (A') (A')
                 (A') (A') (A') (A') (A') (A') (A') (A') (A') (A')
                 (A') (A') (A') (A') (A') (A') (A') (A') (A") (A")
                 (A") (A") (A") (A") (A") (A") (A") (A") (A") (A")
                 (A") (A") (A") (A") (A") (A") (A") (A") (A") (A")
                 (A") (A") (A")
 The electronic state of the initial guess is 1-A'.
 Generating alternative initial guess.
 ExpMin= 2.97D-02 ExpMax= 1.17D+04 ExpMxC= 4.01D+02 IAcc=3 IRadAn=         5 AccDes= 0.00D+00
 Harris functional with IExCor=  402 and IRadAn=       5 diagonalized for initial guess.
 HarFok:  IExCor=  402 AccDes= 0.00D+00 IRadAn=         5 IDoV= 1 UseB2=F ITyADJ=14
 ICtDFT=  3500011 ScaDFX=  1.000000  1.000000  1.000000  1.000000
 FoFCou: FMM=F IPFlag=           0 FMFlag=      100000 FMFlg1=           0
         NFxFlg=           0 DoJE=T BraDBF=F KetDBF=T FulRan=T
         wScrn=  0.000000 ICntrl=     500 IOpCl=  0 I1Cent=   200000004 NGrid=           0
         NMat0=    1 NMatS0=      1 NMatT0=    0 NMatD0=    1 NMtDS0=    0 NMtDT0=    0
 Petite list used in FoFCou.
 Harris En= -115.762824931401    
 Leave Link  401 at Wed Sep  2 14:53:44 2015, MaxMem=    33554432 cpu:         2.2
 (Enter /group/hpc-share/gaussian/2009D/g09/l502.exe)
 Closed shell SCF:
 Using DIIS extrapolation, IDIIS=  1040.
 Integral symmetry usage will be decided dynamically.
 Keep R1 ints in memory in symmetry-blocked form, NReq=8785626.
 IVT=       42198 IEndB=       42198 NGot=    33554432 MDV=    30560795
 LenX=    30560795 LenY=    30552958
 Requested convergence on RMS density matrix=1.00D-08 within 128 cycles.
 Requested convergence on MAX density matrix=1.00D-06.
 Requested convergence on             energy=1.00D-06.
 No special actions if energy rises.
 FoFCou: FMM=F IPFlag=           0 FMFlag=           0 FMFlg1=           0
         NFxFlg=           0 DoJE=F BraDBF=F KetDBF=F FulRan=T
         wScrn=  0.000000 ICntrl=     600 IOpCl=  0 I1Cent=           0 NGrid=           0
         NMat0=    1 NMatS0=   3403 NMatT0=    0 NMatD0=    1 NMtDS0=    0 NMtDT0=    0
 Petite list used in FoFCou.

 Cycle   1  Pass 1  IDiag  1:
 E= -115.740612728683    
 DIIS: error= 2.68D-03 at cycle   1 NSaved=   1.
 NSaved= 1 IEnMin= 1 EnMin= -115.740612728683     IErMin= 1 ErrMin= 2.68D-03
 ErrMax= 2.68D-03  0.00D+00 EMaxC= 1.00D-01 BMatC= 1.14D-03 BMatP= 1.14D-03
 IDIUse=3 WtCom= 9.73D-01 WtEn= 2.68D-02
 Coeff-Com:  0.100D+01
 Coeff-En:   0.100D+01
 Coeff:      0.100D+01
 Gap=     0.462 Goal=   None    Shift=    0.000
 GapD=    0.462 DampG=2.000 DampE=1.000 DampFc=2.0000 IDamp=-1.
 RMSDP=1.24D-03 MaxDP=2.27D-02              OVMax= 1.90D-02

 Cycle   2  Pass 1  IDiag  1:
 E= -115.742307631833     Delta-E=       -0.001694903150 Rises=F Damp=F
 DIIS: error= 3.57D-04 at cycle   2 NSaved=   2.
 NSaved= 2 IEnMin= 2 EnMin= -115.742307631833     IErMin= 2 ErrMin= 3.57D-04
 ErrMax= 3.57D-04  0.00D+00 EMaxC= 1.00D-01 BMatC= 2.02D-05 BMatP= 1.14D-03
 IDIUse=3 WtCom= 9.96D-01 WtEn= 3.57D-03
 Coeff-Com: -0.486D-02 0.100D+01
 Coeff-En:   0.000D+00 0.100D+01
 Coeff:     -0.484D-02 0.100D+01
 Gap=     0.270 Goal=   None    Shift=    0.000
 RMSDP=1.14D-04 MaxDP=1.65D-03 DE=-1.69D-03 OVMax= 2.83D-03

 Cycle   3  Pass 1  IDiag  1:
 E= -115.742331205275     Delta-E=       -0.000023573443 Rises=F Damp=F
 DIIS: error= 2.10D-04 at cycle   3 NSaved=   3.
 NSaved= 3 IEnMin= 3 EnMin= -115.742331205275     IErMin= 3 ErrMin= 2.10D-04
 ErrMax= 2.10D-04  0.00D+00 EMaxC= 1.00D-01 BMatC= 4.58D-06 BMatP= 2.02D-05
 IDIUse=3 WtCom= 9.98D-01 WtEn= 2.10D-03
 Coeff-Com: -0.139D-01 0.311D+00 0.703D+00
 Coeff-En:   0.000D+00 0.000D+00 0.100D+01
 Coeff:     -0.139D-01 0.310D+00 0.704D+00
 Gap=     0.270 Goal=   None    Shift=    0.000
 RMSDP=2.70D-05 MaxDP=4.72D-04 DE=-2.36D-05 OVMax= 7.93D-04

 Cycle   4  Pass 1  IDiag  1:
 E= -115.742336388353     Delta-E=       -0.000005183078 Rises=F Damp=F
 DIIS: error= 2.39D-05 at cycle   4 NSaved=   4.
 NSaved= 4 IEnMin= 4 EnMin= -115.742336388353     IErMin= 4 ErrMin= 2.39D-05
 ErrMax= 2.39D-05  0.00D+00 EMaxC= 1.00D-01 BMatC= 6.76D-08 BMatP= 4.58D-06
 IDIUse=1 WtCom= 1.00D+00 WtEn= 0.00D+00
 Coeff-Com: -0.226D-02 0.246D-01 0.120D+00 0.858D+00
 Coeff:     -0.226D-02 0.246D-01 0.120D+00 0.858D+00
 Gap=     0.270 Goal=   None    Shift=    0.000
 RMSDP=4.05D-06 MaxDP=7.27D-05 DE=-5.18D-06 OVMax= 1.18D-04

 Cycle   5  Pass 1  IDiag  1:
 E= -115.742336433421     Delta-E=       -0.000000045068 Rises=F Damp=F
 DIIS: error= 2.04D-05 at cycle   5 NSaved=   5.
 NSaved= 5 IEnMin= 5 EnMin= -115.742336433421     IErMin= 5 ErrMin= 2.04D-05
 ErrMax= 2.04D-05  0.00D+00 EMaxC= 1.00D-01 BMatC= 2.64D-08 BMatP= 6.76D-08
 IDIUse=1 WtCom= 1.00D+00 WtEn= 0.00D+00
 Coeff-Com: -0.911D-03 0.471D-02 0.429D-01 0.443D+00 0.510D+00
 Coeff:     -0.911D-03 0.471D-02 0.429D-01 0.443D+00 0.510D+00
 Gap=     0.270 Goal=   None    Shift=    0.000
 RMSDP=1.59D-06 MaxDP=4.04D-05 DE=-4.51D-08 OVMax= 4.79D-05

 Cycle   6  Pass 1  IDiag  1:
 E= -115.742336452478     Delta-E=       -0.000000019058 Rises=F Damp=F
 DIIS: error= 5.97D-06 at cycle   6 NSaved=   6.
 NSaved= 6 IEnMin= 6 EnMin= -115.742336452478     IErMin= 6 ErrMin= 5.97D-06
 ErrMax= 5.97D-06  0.00D+00 EMaxC= 1.00D-01 BMatC= 2.73D-09 BMatP= 2.64D-08
 IDIUse=1 WtCom= 1.00D+00 WtEn= 0.00D+00
 Coeff-Com: -0.968D-04-0.262D-02 0.218D-02 0.101D+00 0.264D+00 0.635D+00
 Coeff:     -0.968D-04-0.262D-02 0.218D-02 0.101D+00 0.264D+00 0.635D+00
 Gap=     0.270 Goal=   None    Shift=    0.000
 RMSDP=4.19D-07 MaxDP=1.25D-05 DE=-1.91D-08 OVMax= 1.34D-05

 Cycle   7  Pass 1  IDiag  1:
 E= -115.742336454328     Delta-E=       -0.000000001849 Rises=F Damp=F
 DIIS: error= 1.02D-06 at cycle   7 NSaved=   7.
 NSaved= 7 IEnMin= 7 EnMin= -115.742336454328     IErMin= 7 ErrMin= 1.02D-06
 ErrMax= 1.02D-06  0.00D+00 EMaxC= 1.00D-01 BMatC= 9.84D-11 BMatP= 2.73D-09
 IDIUse=1 WtCom= 1.00D+00 WtEn= 0.00D+00
 Coeff-Com:  0.739D-05-0.128D-02-0.990D-03 0.230D-01 0.865D-01 0.262D+00
 Coeff-Com:  0.631D+00
 Coeff:      0.739D-05-0.128D-02-0.990D-03 0.230D-01 0.865D-01 0.262D+00
 Coeff:      0.631D+00
 Gap=     0.270 Goal=   None    Shift=    0.000
 RMSDP=1.22D-07 MaxDP=2.75D-06 DE=-1.85D-09 OVMax= 3.28D-06

 Cycle   8  Pass 1  IDiag  1:
 E= -115.742336454407     Delta-E=       -0.000000000079 Rises=F Damp=F
 DIIS: error= 3.25D-07 at cycle   8 NSaved=   8.
 NSaved= 8 IEnMin= 8 EnMin= -115.742336454407     IErMin= 8 ErrMin= 3.25D-07
 ErrMax= 3.25D-07  0.00D+00 EMaxC= 1.00D-01 BMatC= 1.00D-11 BMatP= 9.84D-11
 IDIUse=1 WtCom= 1.00D+00 WtEn= 0.00D+00
 Coeff-Com:  0.818D-05-0.182D-03-0.531D-03-0.139D-02 0.506D-02 0.320D-01
 Coeff-Com:  0.273D+00 0.692D+00
 Coeff:      0.818D-05-0.182D-03-0.531D-03-0.139D-02 0.506D-02 0.320D-01
 Coeff:      0.273D+00 0.692D+00
 Gap=     0.270 Goal=   None    Shift=    0.000
 RMSDP=3.42D-08 MaxDP=8.58D-07 DE=-7.92D-11 OVMax= 9.72D-07

 Cycle   9  Pass 1  IDiag  1:
 E= -115.742336454417     Delta-E=       -0.000000000010 Rises=F Damp=F
 DIIS: error= 2.57D-08 at cycle   9 NSaved=   9.
 NSaved= 9 IEnMin= 9 EnMin= -115.742336454417     IErMin= 9 ErrMin= 2.57D-08
 ErrMax= 2.57D-08  0.00D+00 EMaxC= 1.00D-01 BMatC= 5.66D-14 BMatP= 1.00D-11
 IDIUse=1 WtCom= 1.00D+00 WtEn= 0.00D+00
 Coeff-Com:  0.160D-05 0.116D-05-0.921D-04-0.970D-03-0.160D-02-0.115D-02
 Coeff-Com:  0.410D-01 0.148D+00 0.815D+00
 Coeff:      0.160D-05 0.116D-05-0.921D-04-0.970D-03-0.160D-02-0.115D-02
 Coeff:      0.410D-01 0.148D+00 0.815D+00
 Gap=     0.270 Goal=   None    Shift=    0.000
 RMSDP=3.44D-09 MaxDP=4.87D-08 DE=-1.01D-11 OVMax= 7.25D-08

 SCF Done:  E(RB3LYP) =  -115.742336454     A.U. after    9 cycles
            NFock=  9  Conv=0.34D-08     -V/T= 2.0069
 KE= 1.149456047029D+02 PE=-3.513923344925D+02 EE= 8.060278816854D+01
 Leave Link  502 at Wed Sep  2 14:53:44 2015, MaxMem=    33554432 cpu:         5.4
 (Enter /group/hpc-share/gaussian/2009D/g09/l701.exe)
 Compute integral first derivatives.
 ... and contract with generalized density number  0.
 Leave Link  701 at Wed Sep  2 14:53:45 2015, MaxMem=    33554432 cpu:         1.1
 (Enter /group/hpc-share/gaussian/2009D/g09/l702.exe)
 L702 exits ... SP integral derivatives will be done elsewhere.
 Leave Link  702 at Wed Sep  2 14:53:45 2015, MaxMem=    33554432 cpu:         0.2
 (Enter /group/hpc-share/gaussian/2009D/g09/l703.exe)
 Compute integral first derivatives, UseDBF=F ICtDFT=           0.
 Integral derivatives from FoFJK, PRISM(SPDF).
 Calling FoFJK, ICntrl=      2127 FMM=F ISym2X=1 I1Cent= 0 IOpClX= 0 NMat=1 NMatS=1 NMatT=0.
 FoFJK:  IHMeth= 1 ICntrl=    2127 DoSepK=F KAlg= 0 I1Cent=   0 FoldK=F
 IRaf=         0 NMat=   1 IRICut=       1 DoRegI=T DoRafI=F ISym2E= 1.
 FoFCou: FMM=F IPFlag=           0 FMFlag=      100000 FMFlg1=         800
         NFxFlg=           0 DoJE=F BraDBF=F KetDBF=F FulRan=T
         wScrn=  0.000000 ICntrl=    2127 IOpCl=  0 I1Cent=           0 NGrid=           0
         NMat0=    1 NMatS0=      1 NMatT0=    0 NMatD0=    1 NMtDS0=    0 NMtDT0=    0
 Petite list used in FoFCou.
 Leave Link  703 at Wed Sep  2 14:53:45 2015, MaxMem=    33554432 cpu:         2.9
 (Enter /group/hpc-share/gaussian/2009D/g09/l716.exe)
 Dipole        = 5.28229346D-01 3.72191088D-01 2.22044605D-16
 ***** Axes restored to original set *****
 -------------------------------------------------------------------
 Center     Atomic                   Forces (Hartrees/Bohr)
 Number     Number              X              Y              Z
 -------------------------------------------------------------------
      1        8           0.000411902    0.000000000   -0.000847749
      2        1           0.000563223    0.000000000    0.001745410
      3        6           0.002048606    0.000000000   -0.001895880
      4        1           0.000138431    0.000000000   -0.000794711
      5        1          -0.001581081    0.000043849    0.000896465
      6        1          -0.001581081   -0.000043849    0.000896465
 -------------------------------------------------------------------
 Cartesian Forces:  Max     0.002048606 RMS     0.001035607
 Leave Link  716 at Wed Sep  2 14:53:45 2015, MaxMem=    33554432 cpu:         0.2
 (Enter /group/hpc-share/gaussian/2009D/g09/l103.exe)

 GradGradGradGradGradGradGradGradGradGradGradGradGradGradGradGradGradGrad
 Berny optimization.
 Using GEDIIS/GDIIS optimizer.
 FormGI is forming the generalized inverse of G from B-inverse, IUseBI=4.
 Internal  Forces:  Max     0.002291240 RMS     0.001255613
 Search for a local minimum.
 Step number   2 out of a maximum of   25
 All quantities printed in internal units (Hartrees-Bohrs-Radians)
 RMS Force = .12556D-02 SwitMx=.10000D-02 MixMth= 1
 Mixed Optimization -- RFO/linear search
 Update second derivatives using D2CorX and points    1    2
 DE= -1.69D-03 DEPred=-2.04D-03 R= 8.28D-01
 TightC=F SS=  1.41D+00  RLast= 1.35D-01 DXNew= 5.0454D-01 4.0528D-01
 Trust test= 8.28D-01 RLast= 1.35D-01 DXMaxT set to 4.05D-01
 The second derivative matrix:
                          R1        R2        R3        R4        R5
           R1           0.56144
           R2          -0.01594   0.44800
           R3          -0.00563  -0.00630   0.34725
           R4          -0.00645  -0.00244  -0.00260   0.34874
           R5          -0.00645  -0.00244  -0.00260  -0.00054   0.34874
           A1           0.00309   0.00569   0.00100   0.00257   0.00257
           A2           0.00602   0.00211   0.00243   0.00042   0.00042
           A3          -0.00208   0.00581  -0.00120   0.00319   0.00319
           A4          -0.00208   0.00581  -0.00120   0.00319   0.00319
           A5           0.00310   0.00180   0.00121   0.00058   0.00058
           A6           0.00310   0.00180   0.00121   0.00058   0.00058
           A7          -0.00661  -0.01516  -0.00196  -0.00702  -0.00702
           D1           0.00000   0.00000   0.00000   0.00000   0.00000
           D2          -0.00884  -0.01772  -0.00277  -0.00808  -0.00808
           D3           0.00884   0.01772   0.00277   0.00808   0.00808
                          A1        A2        A3        A4        A5
           A1           0.16012
           A2          -0.00244   0.15970
           A3           0.00279  -0.00314   0.16733
           A4           0.00279  -0.00314   0.00733   0.16733
           A5          -0.00104  -0.00051  -0.00093  -0.00093   0.15961
           A6          -0.00104  -0.00051  -0.00093  -0.00093  -0.00039
           A7          -0.00115   0.00672  -0.00884  -0.00884   0.00274
           D1           0.00000   0.00000   0.00000   0.00000   0.00000
           D2          -0.00077   0.00771  -0.00937  -0.00937   0.00323
           D3           0.00077  -0.00771   0.00937   0.00937  -0.00323
                          A6        A7        D1        D2        D3
           A6           0.15961
           A7           0.00274   0.16545
           D1           0.00000   0.00000   0.01692
           D2           0.00323   0.00473   0.00000   0.02060
           D3          -0.00323  -0.00473   0.00000  -0.00368   0.02060
 ITU=  1  0
 Use linear search instead of GDIIS.
     Eigenvalues ---    0.01692   0.10411   0.10647   0.15890   0.16000
     Eigenvalues ---    0.16000   0.18753   0.34347   0.34928   0.35195
     Eigenvalues ---    0.44763   0.56412
 RFO step:  Lambda=-6.35725358D-05 EMin= 1.69178031D-02
 Quartic linear search produced a step of -0.11557.
 Iteration  1 RMS(Cart)=  0.01020298 RMS(Int)=  0.00010552
 Iteration  2 RMS(Cart)=  0.00006690 RMS(Int)=  0.00008075
 Iteration  3 RMS(Cart)=  0.00000000 RMS(Int)=  0.00008075
 ITry= 1 IFail=0 DXMaxC= 2.07D-02 DCOld= 1.00D+10 DXMaxT= 4.05D-01 DXLimC= 3.00D+00 Rises=F
 ClnCor:  largest displacement from symmetrization is 8.40D-13 for atom     6.
 Variable       Old X    -DE/DX   Delta X   Delta X   Delta X     New X
                                 (Linear)    (Quad)   (Total)
    R1        1.81828   0.00173  -0.00266   0.00568   0.00302   1.82129
    R2        2.69333  -0.00065  -0.00551   0.00500  -0.00051   2.69282
    R3        2.07060   0.00079  -0.00147   0.00365   0.00218   2.07278
    R4        2.08555  -0.00050  -0.00319   0.00234  -0.00085   2.08470
    R5        2.08555  -0.00050  -0.00319   0.00234  -0.00085   2.08470
    A1        1.90877  -0.00109   0.00021  -0.00626  -0.00604   1.90273
    A2        1.85332   0.00139   0.00662   0.00218   0.00877   1.86210
    A3        1.96958  -0.00229  -0.00681  -0.00619  -0.01292   1.95666
    A4        1.96958  -0.00229  -0.00681  -0.00619  -0.01292   1.95666
    A5        1.88545   0.00100   0.00291   0.00405   0.00692   1.89237
    A6        1.88545   0.00100   0.00291   0.00405   0.00692   1.89237
    A7        1.89656   0.00144   0.00163   0.00298   0.00478   1.90134
    D1        3.14159   0.00000   0.00000   0.00000   0.00000   3.14159
    D2       -1.07922   0.00084   0.00370   0.00288   0.00674  -1.07248
    D3        1.07922  -0.00084  -0.00370  -0.00288  -0.00674   1.07248
         Item               Value     Threshold  Converged?
 Maximum Force            0.002291     0.000450     NO 
 RMS     Force            0.001256     0.000300     NO 
 Maximum Displacement     0.020709     0.001800     NO 
 RMS     Displacement     0.010235     0.001200     NO 
 Predicted change in Energy=-5.665328D-05
 Lowest energy point so far.  Saving SCF results.
 GradGradGradGradGradGradGradGradGradGradGradGradGradGradGradGradGradGrad

 Leave Link  103 at Wed Sep  2 14:53:45 2015, MaxMem=    33554432 cpu:         0.0
 (Enter /group/hpc-share/gaussian/2009D/g09/l202.exe)
                          Input orientation:                          
 ---------------------------------------------------------------------
 Center     Atomic      Atomic             Coordinates (Angstroms)
 Number     Number       Type             X           Y           Z
 ---------------------------------------------------------------------
      1          8           0       -0.026587    0.000000   -0.005805
      2          1           0       -0.040275    0.000000    0.957886
      3          6           0        1.327067    0.000000   -0.450983
      4          1           0        1.298080    0.000000   -1.547466
      5          1           0        1.874082    0.897771   -0.116649
      6          1           0        1.874082   -0.897771   -0.116649
 ---------------------------------------------------------------------
                    Distance matrix (angstroms):
                    1          2          3          4          5
     1  O    0.000000
     2  H    0.963788   0.000000
     3  C    1.424978   1.963297   0.000000
     4  H    2.032600   2.840419   1.096866   0.000000
     5  H    2.104951   2.371789   1.103176   1.784659   0.000000
     6  H    2.104951   2.371789   1.103176   1.784659   1.795541
                    6
     6  H    0.000000
 Stoichiometry    CH4O
 Framework group  CS[SG(CH2O),X(H2)]
 Deg. of freedom     8
 Full point group                 CS      NOp   2
 RotChk:  IX=0 Diff= 5.08D-03
 Largest Abelian subgroup         CS      NOp   2
 Largest concise Abelian subgroup CS      NOp   2
                         Standard orientation:                         
 ---------------------------------------------------------------------
 Center     Atomic      Atomic             Coordinates (Angstroms)
 Number     Number       Type             X           Y           Z
 ---------------------------------------------------------------------
      1          8           0       -0.046528   -0.758673    0.000000
      2          1           0        0.864650   -1.072744    0.000000
      3          6           0       -0.046528    0.666304    0.000000
      4          1           0       -1.097185    0.981321    0.000000
      5          1           0        0.441964    1.081491    0.897771
      6          1           0        0.441964    1.081491   -0.897771
 ---------------------------------------------------------------------
 Rotational constants (GHZ):    126.8831686     24.5752024     23.7284721
 Leave Link  202 at Wed Sep  2 14:53:45 2015, MaxMem=    33554432 cpu:         0.0
 (Enter /group/hpc-share/gaussian/2009D/g09/l301.exe)
 Standard basis: Aug-CC-pVDZ (5D, 7F)
 Ernie: Thresh=  0.10000D-02 Tol=  0.10000D-05 Strict=F.
 Ernie:  4 primitive shells out of 78 were deleted.
 There are    59 symmetry adapted cartesian basis functions of A'  symmetry.
 There are    27 symmetry adapted cartesian basis functions of A"  symmetry.
 There are    55 symmetry adapted basis functions of A'  symmetry.
 There are    27 symmetry adapted basis functions of A"  symmetry.
    82 basis functions,   130 primitive gaussians,    86 cartesian basis functions
     9 alpha electrons        9 beta electrons
       nuclear repulsion energy        40.1111545662 Hartrees.
 IExCor=  402 DFT=T Ex+Corr=B3LYP ExCW=0 ScaHFX=  0.200000
 ScaDFX=  0.800000  0.720000  1.000000  0.810000 ScalE2=  1.000000  1.000000
 IRadAn=      0 IRanWt=     -1 IRanGd=            0 ICorTp=0 IEmpDi=  4
 NAtoms=    6 NActive=    6 NUniq=    5 SFac= 1.44D+00 NAtFMM=   60 NAOKFM=F Big=F
 Integral buffers will be    131072 words long.
 Raffenetti 2 integral format.
 Two-electron integral symmetry is turned on.
 Leave Link  301 at Wed Sep  2 14:53:46 2015, MaxMem=    33554432 cpu:         0.4
 (Enter /group/hpc-share/gaussian/2009D/g09/l302.exe)
 NPDir=0 NMtPBC=     1 NCelOv=     1 NCel=       1 NClECP=     1 NCelD=      1
         NCelK=      1 NCelE2=     1 NClLst=     1 CellRange=     0.0.
 One-electron integrals computed using PRISM.
 One-electron integral symmetry used in STVInt
 NBasis=    82 RedAO= T EigKep=  6.16D-04  NBF=    55    27
 NBsUse=    82 1.00D-06 EigRej= -1.00D+00 NBFU=    55    27
 Precomputing XC quadrature grid using
 IXCGrd= 4 IRadAn=           0 IRanWt=          -1 IRanGd=           0 AccXCQ= 0.00D+00.
 Generated NRdTot=       0 NPtTot=           0 NUsed=           0 NTot=          32
 NSgBfM=    86    86    86    86    86 MxSgAt=     6 MxSgA2=     6.
 Leave Link  302 at Wed Sep  2 14:53:46 2015, MaxMem=    33554432 cpu:         1.4
 (Enter /group/hpc-share/gaussian/2009D/g09/l303.exe)
 DipDrv:  MaxL=1.
 Leave Link  303 at Wed Sep  2 14:53:46 2015, MaxMem=    33554432 cpu:         0.3
 (Enter /group/hpc-share/gaussian/2009D/g09/l401.exe)
 Initial guess from the checkpoint file:  "methanol.chk"
 B after Tr=     0.000000    0.000000    0.000000
         Rot=    0.999999    0.000000    0.000000    0.001205 Ang=   0.14 deg.
 Guess basis will be translated and rotated to current coordinates.
 JPrj=2 DoOrth=T DoCkMO=T.
 Initial guess orbital symmetries:
       Occupied  (A') (A') (A') (A') (A') (A") (A') (A') (A")
       Virtual   (A') (A') (A') (A') (A') (A') (A') (A') (A') (A')
                 (A') (A') (A') (A') (A') (A') (A') (A') (A') (A')
                 (A') (A') (A') (A') (A') (A') (A') (A') (A') (A')
                 (A') (A') (A') (A') (A') (A') (A') (A') (A') (A')
                 (A') (A') (A') (A') (A') (A') (A') (A') (A") (A")
                 (A") (A") (A") (A") (A") (A") (A") (A") (A") (A")
                 (A") (A") (A") (A") (A") (A") (A") (A") (A") (A")
                 (A") (A") (A")
 The electronic state of the initial guess is 1-A'.
 Generating alternative initial guess.
 ExpMin= 2.97D-02 ExpMax= 1.17D+04 ExpMxC= 4.01D+02 IAcc=3 IRadAn=         5 AccDes= 0.00D+00
 Harris functional with IExCor=  402 and IRadAn=       5 diagonalized for initial guess.
 HarFok:  IExCor=  402 AccDes= 0.00D+00 IRadAn=         5 IDoV= 1 UseB2=F ITyADJ=14
 ICtDFT=  3500011 ScaDFX=  1.000000  1.000000  1.000000  1.000000
 FoFCou: FMM=F IPFlag=           0 FMFlag=      100000 FMFlg1=           0
         NFxFlg=           0 DoJE=T BraDBF=F KetDBF=T FulRan=T
         wScrn=  0.000000 ICntrl=     500 IOpCl=  0 I1Cent=   200000004 NGrid=           0
         NMat0=    1 NMatS0=      1 NMatT0=    0 NMatD0=    1 NMtDS0=    0 NMtDT0=    0
 Petite list used in FoFCou.
 Harris En= -115.762867646620    
 Leave Link  401 at Wed Sep  2 14:53:46 2015, MaxMem=    33554432 cpu:         2.4
 (Enter /group/hpc-share/gaussian/2009D/g09/l502.exe)
 Closed shell SCF:
 Using DIIS extrapolation, IDIIS=  1040.
 Integral symmetry usage will be decided dynamically.
 Keep R1 ints in memory in symmetry-blocked form, NReq=8785626.
 IVT=       42198 IEndB=       42198 NGot=    33554432 MDV=    30560795
 LenX=    30560795 LenY=    30552958
 Requested convergence on RMS density matrix=1.00D-08 within 128 cycles.
 Requested convergence on MAX density matrix=1.00D-06.
 Requested convergence on             energy=1.00D-06.
 No special actions if energy rises.
 FoFCou: FMM=F IPFlag=           0 FMFlag=           0 FMFlg1=           0
         NFxFlg=           0 DoJE=F BraDBF=F KetDBF=F FulRan=T
         wScrn=  0.000000 ICntrl=     600 IOpCl=  0 I1Cent=           0 NGrid=           0
         NMat0=    1 NMatS0=   3403 NMatT0=    0 NMatD0=    1 NMtDS0=    0 NMtDT0=    0
 Petite list used in FoFCou.

 Cycle   1  Pass 1  IDiag  1:
 E= -115.742335049401    
 DIIS: error= 5.23D-04 at cycle   1 NSaved=   1.
 NSaved= 1 IEnMin= 1 EnMin= -115.742335049401     IErMin= 1 ErrMin= 5.23D-04
 ErrMax= 5.23D-04  0.00D+00 EMaxC= 1.00D-01 BMatC= 4.41D-05 BMatP= 4.41D-05
 IDIUse=3 WtCom= 9.95D-01 WtEn= 5.23D-03
 Coeff-Com:  0.100D+01
 Coeff-En:   0.100D+01
 Coeff:      0.100D+01
 Gap=     0.458 Goal=   None    Shift=    0.000
 RMSDP=1.88D-04 MaxDP=2.49D-03              OVMax= 3.24D-03

 Cycle   2  Pass 1  IDiag  1:
 E= -115.742397256955     Delta-E=       -0.000062207554 Rises=F Damp=F
 DIIS: error= 9.78D-05 at cycle   2 NSaved=   2.
 NSaved= 2 IEnMin= 2 EnMin= -115.742397256955     IErMin= 2 ErrMin= 9.78D-05
 ErrMax= 9.78D-05  0.00D+00 EMaxC= 1.00D-01 BMatC= 1.62D-06 BMatP= 4.41D-05
 IDIUse=1 WtCom= 1.00D+00 WtEn= 0.00D+00
 Coeff-Com:  0.274D-01 0.973D+00
 Coeff:      0.274D-01 0.973D+00
 Gap=     0.269 Goal=   None    Shift=    0.000
 RMSDP=2.81D-05 MaxDP=4.64D-04 DE=-6.22D-05 OVMax= 7.34D-04

 Cycle   3  Pass 1  IDiag  1:
 E= -115.742397929220     Delta-E=       -0.000000672265 Rises=F Damp=F
 DIIS: error= 1.22D-04 at cycle   3 NSaved=   3.
 NSaved= 3 IEnMin= 3 EnMin= -115.742397929220     IErMin= 2 ErrMin= 9.78D-05
 ErrMax= 1.22D-04  0.00D+00 EMaxC= 1.00D-01 BMatC= 1.35D-06 BMatP= 1.62D-06
 IDIUse=3 WtCom= 9.99D-01 WtEn= 1.22D-03
 Coeff-Com: -0.182D-01 0.480D+00 0.538D+00
 Coeff-En:   0.000D+00 0.352D+00 0.648D+00
 Coeff:     -0.181D-01 0.480D+00 0.538D+00
 Gap=     0.269 Goal=   None    Shift=    0.000
 RMSDP=1.11D-05 MaxDP=2.73D-04 DE=-6.72D-07 OVMax= 3.00D-04

 Cycle   4  Pass 1  IDiag  1:
 E= -115.742398952479     Delta-E=       -0.000001023259 Rises=F Damp=F
 DIIS: error= 4.34D-05 at cycle   4 NSaved=   4.
 NSaved= 4 IEnMin= 4 EnMin= -115.742398952479     IErMin= 4 ErrMin= 4.34D-05
 ErrMax= 4.34D-05  0.00D+00 EMaxC= 1.00D-01 BMatC= 1.54D-07 BMatP= 1.35D-06
 IDIUse=1 WtCom= 1.00D+00 WtEn= 0.00D+00
 Coeff-Com: -0.113D-01 0.194D+00 0.307D+00 0.511D+00
 Coeff:     -0.113D-01 0.194D+00 0.307D+00 0.511D+00
 Gap=     0.269 Goal=   None    Shift=    0.000
 RMSDP=3.13D-06 MaxDP=7.67D-05 DE=-1.02D-06 OVMax= 9.06D-05

 Cycle   5  Pass 1  IDiag  1:
 E= -115.742399067400     Delta-E=       -0.000000114921 Rises=F Damp=F
 DIIS: error= 6.24D-06 at cycle   5 NSaved=   5.
 NSaved= 5 IEnMin= 5 EnMin= -115.742399067400     IErMin= 5 ErrMin= 6.24D-06
 ErrMax= 6.24D-06  0.00D+00 EMaxC= 1.00D-01 BMatC= 2.88D-09 BMatP= 1.54D-07
 IDIUse=1 WtCom= 1.00D+00 WtEn= 0.00D+00
 Coeff-Com: -0.289D-02 0.409D-01 0.766D-01 0.172D+00 0.713D+00
 Coeff:     -0.289D-02 0.409D-01 0.766D-01 0.172D+00 0.713D+00
 Gap=     0.269 Goal=   None    Shift=    0.000
 RMSDP=7.71D-07 MaxDP=1.51D-05 DE=-1.15D-07 OVMax= 2.11D-05

 Cycle   6  Pass 1  IDiag  1:
 E= -115.742399069418     Delta-E=       -0.000000002018 Rises=F Damp=F
 DIIS: error= 3.49D-06 at cycle   6 NSaved=   6.
 NSaved= 6 IEnMin= 6 EnMin= -115.742399069418     IErMin= 6 ErrMin= 3.49D-06
 ErrMax= 3.49D-06  0.00D+00 EMaxC= 1.00D-01 BMatC= 7.08D-10 BMatP= 2.88D-09
 IDIUse=1 WtCom= 1.00D+00 WtEn= 0.00D+00
 Coeff-Com: -0.203D-03-0.241D-02 0.236D-02 0.230D-01 0.358D+00 0.619D+00
 Coeff:     -0.203D-03-0.241D-02 0.236D-02 0.230D-01 0.358D+00 0.619D+00
 Gap=     0.269 Goal=   None    Shift=    0.000
 RMSDP=2.78D-07 MaxDP=6.91D-06 DE=-2.02D-09 OVMax= 7.18D-06

 Cycle   7  Pass 1  IDiag  1:
 E= -115.742399070081     Delta-E=       -0.000000000663 Rises=F Damp=F
 DIIS: error= 1.89D-07 at cycle   7 NSaved=   7.
 NSaved= 7 IEnMin= 7 EnMin= -115.742399070081     IErMin= 7 ErrMin= 1.89D-07
 ErrMax= 1.89D-07  0.00D+00 EMaxC= 1.00D-01 BMatC= 3.77D-12 BMatP= 7.08D-10
 IDIUse=1 WtCom= 1.00D+00 WtEn= 0.00D+00
 Coeff-Com:  0.139D-04-0.184D-02-0.153D-02 0.905D-03 0.668D-01 0.141D+00
 Coeff-Com:  0.794D+00
 Coeff:      0.139D-04-0.184D-02-0.153D-02 0.905D-03 0.668D-01 0.141D+00
 Coeff:      0.794D+00
 Gap=     0.269 Goal=   None    Shift=    0.000
 RMSDP=2.71D-08 MaxDP=4.01D-07 DE=-6.63D-10 OVMax= 5.35D-07

 Cycle   8  Pass 1  IDiag  1:
 E= -115.742399070085     Delta-E=       -0.000000000004 Rises=F Damp=F
 DIIS: error= 3.13D-08 at cycle   8 NSaved=   8.
 NSaved= 8 IEnMin= 8 EnMin= -115.742399070085     IErMin= 8 ErrMin= 3.13D-08
 ErrMax= 3.13D-08  0.00D+00 EMaxC= 1.00D-01 BMatC= 9.66D-14 BMatP= 3.77D-12
 IDIUse=1 WtCom= 1.00D+00 WtEn= 0.00D+00
 Coeff-Com:  0.113D-04-0.201D-03-0.324D-03-0.468D-03-0.107D-02-0.101D-02
 Coeff-Com:  0.132D+00 0.871D+00
 Coeff:      0.113D-04-0.201D-03-0.324D-03-0.468D-03-0.107D-02-0.101D-02
 Coeff:      0.132D+00 0.871D+00
 Gap=     0.269 Goal=   None    Shift=    0.000
 RMSDP=4.76D-09 MaxDP=8.32D-08 DE=-3.75D-12 OVMax= 1.33D-07

 SCF Done:  E(RB3LYP) =  -115.742399070     A.U. after    8 cycles
            NFock=  8  Conv=0.48D-08     -V/T= 2.0069
 KE= 1.149453658602D+02 PE=-3.514144494105D+02 EE= 8.061552991399D+01
 Leave Link  502 at Wed Sep  2 14:53:47 2015, MaxMem=    33554432 cpu:         4.9
 (Enter /group/hpc-share/gaussian/2009D/g09/l701.exe)
 Compute integral first derivatives.
 ... and contract with generalized density number  0.
 Leave Link  701 at Wed Sep  2 14:53:47 2015, MaxMem=    33554432 cpu:         1.4
 (Enter /group/hpc-share/gaussian/2009D/g09/l702.exe)
 L702 exits ... SP integral derivatives will be done elsewhere.
 Leave Link  702 at Wed Sep  2 14:53:47 2015, MaxMem=    33554432 cpu:         0.2
 (Enter /group/hpc-share/gaussian/2009D/g09/l703.exe)
 Compute integral first derivatives, UseDBF=F ICtDFT=           0.
 Integral derivatives from FoFJK, PRISM(SPDF).
 Calling FoFJK, ICntrl=      2127 FMM=F ISym2X=1 I1Cent= 0 IOpClX= 0 NMat=1 NMatS=1 NMatT=0.
 FoFJK:  IHMeth= 1 ICntrl=    2127 DoSepK=F KAlg= 0 I1Cent=   0 FoldK=F
 IRaf=         0 NMat=   1 IRICut=       1 DoRegI=T DoRafI=F ISym2E= 1.
 FoFCou: FMM=F IPFlag=           0 FMFlag=      100000 FMFlg1=         800
         NFxFlg=           0 DoJE=F BraDBF=F KetDBF=F FulRan=T
         wScrn=  0.000000 ICntrl=    2127 IOpCl=  0 I1Cent=           0 NGrid=           0
         NMat0=    1 NMatS0=      1 NMatT0=    0 NMatD0=    1 NMtDS0=    0 NMtDT0=    0
 Petite list used in FoFCou.
 Leave Link  703 at Wed Sep  2 14:53:48 2015, MaxMem=    33554432 cpu:         2.6
 (Enter /group/hpc-share/gaussian/2009D/g09/l716.exe)
 Dipole        = 5.29946015D-01 3.75445058D-01-2.22044605D-16
 ***** Axes restored to original set *****
 -------------------------------------------------------------------
 Center     Atomic                   Forces (Hartrees/Bohr)
 Number     Number              X              Y              Z
 -------------------------------------------------------------------
      1        8          -0.000935900    0.000000000    0.000054952
      2        1           0.000170121    0.000000000    0.000053639
      3        6           0.001566917    0.000000000   -0.000256623
      4        1          -0.000189149    0.000000000    0.000232775
      5        1          -0.000305994   -0.000130880   -0.000042372
      6        1          -0.000305994    0.000130880   -0.000042372
 -------------------------------------------------------------------
 Cartesian Forces:  Max     0.001566917 RMS     0.000456247
 Leave Link  716 at Wed Sep  2 14:53:48 2015, MaxMem=    33554432 cpu:         0.1
 (Enter /group/hpc-share/gaussian/2009D/g09/l103.exe)

 GradGradGradGradGradGradGradGradGradGradGradGradGradGradGradGradGradGrad
 Berny optimization.
 Using GEDIIS/GDIIS optimizer.
 FormGI is forming the generalized inverse of G from B-inverse, IUseBI=4.
 Internal  Forces:  Max     0.000763743 RMS     0.000272356
 Search for a local minimum.
 Step number   3 out of a maximum of   25
 All quantities printed in internal units (Hartrees-Bohrs-Radians)
 RMS Force = .27236D-03 SwitMx=.10000D-02 MixMth= 2
 Mixed Optimization -- En-DIIS/RFO-DIIS
 Update second derivatives using D2CorX and points    1    2    3
 DE= -6.26D-05 DEPred=-5.67D-05 R= 1.11D+00
 TightC=F SS=  1.41D+00  RLast= 2.59D-02 DXNew= 6.8160D-01 7.7806D-02
 Trust test= 1.11D+00 RLast= 2.59D-02 DXMaxT set to 4.05D-01
 The second derivative matrix:
                          R1        R2        R3        R4        R5
           R1           0.56499
           R2          -0.03078   0.45286
           R3           0.00112  -0.01453   0.35301
           R4          -0.00085  -0.00334  -0.00009   0.34787
           R5          -0.00085  -0.00334  -0.00009  -0.00142   0.34787
           A1           0.00700   0.01110   0.00062  -0.00047  -0.00047
           A2           0.00863  -0.00717   0.00705   0.00458   0.00458
           A3           0.00084   0.01814  -0.00467  -0.00325  -0.00325
           A4           0.00084   0.01814  -0.00467  -0.00325  -0.00325
           A5          -0.00176  -0.00317   0.00108   0.00371   0.00371
           A6          -0.00176  -0.00317   0.00108   0.00371   0.00371
           A7          -0.00426  -0.02235   0.00171  -0.00393  -0.00393
           D1           0.00000   0.00000   0.00000   0.00000   0.00000
           D2          -0.00089  -0.02310   0.00255  -0.00670  -0.00670
           D3           0.00089   0.02310  -0.00255   0.00670   0.00670
                          A1        A2        A3        A4        A5
           A1           0.15568
           A2           0.00032   0.16101
           A3          -0.00436  -0.00057   0.15695
           A4          -0.00436  -0.00057  -0.00305   0.15695
           A5           0.00385  -0.00404   0.00728   0.00728   0.15427
           A6           0.00385  -0.00404   0.00728   0.00728  -0.00573
           A7           0.00075   0.00802  -0.00735  -0.00735   0.00028
           D1           0.00000   0.00000   0.00000   0.00000   0.00000
           D2          -0.00276   0.01292  -0.01510  -0.01510   0.00486
           D3           0.00276  -0.01292   0.01510   0.01510  -0.00486
                          A6        A7        D1        D2        D3
           A6           0.15427
           A7           0.00028   0.16667
           D1           0.00000   0.00000   0.01692
           D2           0.00486   0.00880   0.00000   0.02479
           D3          -0.00486  -0.00880   0.00000  -0.00787   0.02479
 ITU=  1  1  0
 Use linear search instead of GDIIS.
     Eigenvalues ---    0.01692   0.10639   0.10686   0.14406   0.16000
     Eigenvalues ---    0.16000   0.17452   0.34614   0.34928   0.35121
     Eigenvalues ---    0.45316   0.57347
 RFO step:  Lambda=-4.04645708D-06 EMin= 1.69178031D-02
 Quartic linear search produced a step of  0.06327.
 Iteration  1 RMS(Cart)=  0.00114378 RMS(Int)=  0.00000383
 Iteration  2 RMS(Cart)=  0.00000136 RMS(Int)=  0.00000356
 Iteration  3 RMS(Cart)=  0.00000000 RMS(Int)=  0.00000356
 ITry= 1 IFail=0 DXMaxC= 2.73D-03 DCOld= 1.00D+10 DXMaxT= 4.05D-01 DXLimC= 3.00D+00 Rises=F
 ClnCor:  largest displacement from symmetrization is 2.28D-13 for atom     6.
 Variable       Old X    -DE/DX   Delta X   Delta X   Delta X     New X
                                 (Linear)    (Quad)   (Total)
    R1        1.82129   0.00005   0.00019   0.00007   0.00026   1.82156
    R2        2.69282   0.00076  -0.00003   0.00195   0.00191   2.69473
    R3        2.07278  -0.00023   0.00014  -0.00073  -0.00059   2.07219
    R4        2.08470  -0.00027  -0.00005  -0.00073  -0.00078   2.08392
    R5        2.08470  -0.00027  -0.00005  -0.00073  -0.00078   2.08392
    A1        1.90273  -0.00030  -0.00038  -0.00187  -0.00225   1.90048
    A2        1.86210  -0.00023   0.00056  -0.00199  -0.00144   1.86066
    A3        1.95666  -0.00017  -0.00082  -0.00063  -0.00145   1.95521
    A4        1.95666  -0.00017  -0.00082  -0.00063  -0.00145   1.95521
    A5        1.89237   0.00016   0.00044   0.00075   0.00119   1.89356
    A6        1.89237   0.00016   0.00044   0.00075   0.00119   1.89356
    A7        1.90134   0.00026   0.00030   0.00176   0.00205   1.90339
    D1        3.14159   0.00000   0.00000   0.00000   0.00000   3.14159
    D2       -1.07248  -0.00004   0.00043  -0.00068  -0.00026  -1.07274
    D3        1.07248   0.00004  -0.00043   0.00068   0.00026   1.07274
         Item               Value     Threshold  Converged?
 Maximum Force            0.000764     0.000450     NO 
 RMS     Force            0.000272     0.000300     YES
 Maximum Displacement     0.002727     0.001800     NO 
 RMS     Displacement     0.001144     0.001200     YES
 Predicted change in Energy=-2.246688D-06
 Lowest energy point so far.  Saving SCF results.
 GradGradGradGradGradGradGradGradGradGradGradGradGradGradGradGradGradGrad

 Leave Link  103 at Wed Sep  2 14:53:48 2015, MaxMem=    33554432 cpu:         0.0
 (Enter /group/hpc-share/gaussian/2009D/g09/l202.exe)
                          Input orientation:                          
 ---------------------------------------------------------------------
 Center     Atomic      Atomic             Coordinates (Angstroms)
 Number     Number       Type             X           Y           Z
 ---------------------------------------------------------------------
      1          8           0       -0.026888    0.000000   -0.006285
      2          1           0       -0.038832    0.000000    0.957567
      3          6           0        1.327925    0.000000   -0.451181
      4          1           0        1.297857    0.000000   -1.547323
      5          1           0        1.873194    0.898090   -0.116222
      6          1           0        1.873194   -0.898090   -0.116222
 ---------------------------------------------------------------------
                    Distance matrix (angstroms):
                    1          2          3          4          5
     1  O    0.000000
     2  H    0.963927   0.000000
     3  C    1.425991   1.962803   0.000000
     4  H    2.032178   2.839228   1.096554   0.000000
     5  H    2.104509   2.369690   1.102761   1.784833   0.000000
     6  H    2.104509   2.369690   1.102761   1.784833   1.796179
                    6
     6  H    0.000000
 Stoichiometry    CH4O
 Framework group  CS[SG(CH2O),X(H2)]
 Deg. of freedom     8
 Full point group                 CS      NOp   2
 RotChk:  IX=0 Diff= 6.25D-04
 Largest Abelian subgroup         CS      NOp   2
 Largest concise Abelian subgroup CS      NOp   2
                         Standard orientation:                         
 ---------------------------------------------------------------------
 Center     Atomic      Atomic             Coordinates (Angstroms)
 Number     Number       Type             X           Y           Z
 ---------------------------------------------------------------------
      1          8           0       -0.046551   -0.759020    0.000000
      2          1           0        0.865464   -1.071082    0.000000
      3          6           0       -0.046551    0.666970    0.000000
      4          1           0       -1.097361    0.980389    0.000000
      5          1           0        0.441808    1.080518    0.898090
      6          1           0        0.441808    1.080518   -0.898090
 ---------------------------------------------------------------------
 Rotational constants (GHZ):    126.7947971     24.5624602     23.7160728
 Leave Link  202 at Wed Sep  2 14:53:48 2015, MaxMem=    33554432 cpu:         0.0
 (Enter /group/hpc-share/gaussian/2009D/g09/l301.exe)
 Standard basis: Aug-CC-pVDZ (5D, 7F)
 Ernie: Thresh=  0.10000D-02 Tol=  0.10000D-05 Strict=F.
 Ernie:  4 primitive shells out of 78 were deleted.
 There are    59 symmetry adapted cartesian basis functions of A'  symmetry.
 There are    27 symmetry adapted cartesian basis functions of A"  symmetry.
 There are    55 symmetry adapted basis functions of A'  symmetry.
 There are    27 symmetry adapted basis functions of A"  symmetry.
    82 basis functions,   130 primitive gaussians,    86 cartesian basis functions
     9 alpha electrons        9 beta electrons
       nuclear repulsion energy        40.1028446141 Hartrees.
 IExCor=  402 DFT=T Ex+Corr=B3LYP ExCW=0 ScaHFX=  0.200000
 ScaDFX=  0.800000  0.720000  1.000000  0.810000 ScalE2=  1.000000  1.000000
 IRadAn=      0 IRanWt=     -1 IRanGd=            0 ICorTp=0 IEmpDi=  4
 NAtoms=    6 NActive=    6 NUniq=    5 SFac= 1.44D+00 NAtFMM=   60 NAOKFM=F Big=F
 Integral buffers will be    131072 words long.
 Raffenetti 2 integral format.
 Two-electron integral symmetry is turned on.
 Leave Link  301 at Wed Sep  2 14:53:48 2015, MaxMem=    33554432 cpu:         0.5
 (Enter /group/hpc-share/gaussian/2009D/g09/l302.exe)
 NPDir=0 NMtPBC=     1 NCelOv=     1 NCel=       1 NClECP=     1 NCelD=      1
         NCelK=      1 NCelE2=     1 NClLst=     1 CellRange=     0.0.
 One-electron integrals computed using PRISM.
 One-electron integral symmetry used in STVInt
 NBasis=    82 RedAO= T EigKep=  6.16D-04  NBF=    55    27
 NBsUse=    82 1.00D-06 EigRej= -1.00D+00 NBFU=    55    27
 Precomputing XC quadrature grid using
 IXCGrd= 4 IRadAn=           0 IRanWt=          -1 IRanGd=           0 AccXCQ= 0.00D+00.
 Generated NRdTot=       0 NPtTot=           0 NUsed=           0 NTot=          32
[...]
 Coeff-Com:  0.370D-04-0.538D-02 0.516D-03 0.246D-02 0.214D+00 0.789D+00
 Coeff:      0.370D-04-0.538D-02 0.516D-03 0.246D-02 0.214D+00 0.789D+00
 Gap=     0.269 Goal=   None    Shift=    0.000
 RMSDP=2.03D-08 MaxDP=4.43D-07 DE=-3.69D-11 OVMax= 4.62D-07

 Cycle   7  Pass 1  IDiag  1:
 E= -115.742402450025     Delta-E=       -0.000000000002 Rises=F Damp=F
 DIIS: error= 8.46D-09 at cycle   7 NSaved=   7.
 NSaved= 7 IEnMin= 7 EnMin= -115.742402450025     IErMin= 7 ErrMin= 8.46D-09
 ErrMax= 8.46D-09  0.00D+00 EMaxC= 1.00D-01 BMatC= 4.85D-15 BMatP= 2.79D-12
 IDIUse=1 WtCom= 1.00D+00 WtEn= 0.00D+00
 Coeff-Com:  0.401D-04-0.844D-03-0.990D-03-0.276D-02 0.123D-01 0.467D-01
 Coeff-Com:  0.946D+00
 Coeff:      0.401D-04-0.844D-03-0.990D-03-0.276D-02 0.123D-01 0.467D-01
 Coeff:      0.946D+00
 Gap=     0.269 Goal=   None    Shift=    0.000
 RMSDP=1.23D-09 MaxDP=1.54D-08 DE=-1.59D-12 OVMax= 3.67D-08

 SCF Done:  E(RB3LYP) =  -115.742402450     A.U. after    7 cycles
            NFock=  7  Conv=0.12D-08     -V/T= 2.0069
 KE= 1.149445642143D+02 PE=-3.513751813829D+02 EE= 8.059740492248D+01
 Leave Link  502 at Wed Sep  2 14:53:51 2015, MaxMem=    33554432 cpu:         4.4
 (Enter /group/hpc-share/gaussian/2009D/g09/l701.exe)
 Compute integral first derivatives.
 ... and contract with generalized density number  0.
 Leave Link  701 at Wed Sep  2 14:53:51 2015, MaxMem=    33554432 cpu:         1.1
 (Enter /group/hpc-share/gaussian/2009D/g09/l702.exe)
 L702 exits ... SP integral derivatives will be done elsewhere.
 Leave Link  702 at Wed Sep  2 14:53:51 2015, MaxMem=    33554432 cpu:         0.2
 (Enter /group/hpc-share/gaussian/2009D/g09/l703.exe)
 Compute integral first derivatives, UseDBF=F ICtDFT=           0.
 Integral derivatives from FoFJK, PRISM(SPDF).
 Calling FoFJK, ICntrl=      2127 FMM=F ISym2X=1 I1Cent= 0 IOpClX= 0 NMat=1 NMatS=1 NMatT=0.
 FoFJK:  IHMeth= 1 ICntrl=    2127 DoSepK=F KAlg= 0 I1Cent=   0 FoldK=F
 IRaf=         0 NMat=   1 IRICut=       1 DoRegI=T DoRafI=F ISym2E= 1.
 FoFCou: FMM=F IPFlag=           0 FMFlag=      100000 FMFlg1=         800
         NFxFlg=           0 DoJE=F BraDBF=F KetDBF=F FulRan=T
         wScrn=  0.000000 ICntrl=    2127 IOpCl=  0 I1Cent=           0 NGrid=           0
         NMat0=    1 NMatS0=      1 NMatT0=    0 NMatD0=    1 NMtDS0=    0 NMtDT0=    0
 Petite list used in FoFCou.
 Leave Link  703 at Wed Sep  2 14:53:52 2015, MaxMem=    33554432 cpu:         2.5
 (Enter /group/hpc-share/gaussian/2009D/g09/l716.exe)
 Dipole        = 5.29967110D-01 3.79431497D-01 0.00000000D+00
 ***** Axes restored to original set *****
 -------------------------------------------------------------------
 Center     Atomic                   Forces (Hartrees/Bohr)
 Number     Number              X              Y              Z
 -------------------------------------------------------------------
      1        8          -0.000016598    0.000000000    0.000026249
      2        1           0.000015942    0.000000000   -0.000050211
      3        6          -0.000000968    0.000000000    0.000033481
      4        1          -0.000025704    0.000000000    0.000002313
      5        1           0.000013664    0.000002897   -0.000005916
      6        1           0.000013664   -0.000002897   -0.000005916
 -------------------------------------------------------------------
 Cartesian Forces:  Max     0.000050211 RMS     0.000018239
 Leave Link  716 at Wed Sep  2 14:53:52 2015, MaxMem=    33554432 cpu:         0.2
 (Enter /group/hpc-share/gaussian/2009D/g09/l103.exe)

 GradGradGradGradGradGradGradGradGradGradGradGradGradGradGradGradGradGrad
 Berny optimization.
 Using GEDIIS/GDIIS optimizer.
 FormGI is forming the generalized inverse of G from B-inverse, IUseBI=4.
 Internal  Forces:  Max     0.000054311 RMS     0.000020361
 Search for a local minimum.
 Step number   5 out of a maximum of   25
 All quantities printed in internal units (Hartrees-Bohrs-Radians)
 RMS Force = .20361D-04 SwitMx=.10000D-02 MixMth= 2
 Mixed Optimization -- En-DIIS/RFO-DIIS
 Swapping is turned off.
 Update second derivatives using D2CorX and points    1    2    3    4    5
 DE= -4.94D-07 DEPred=-5.10D-07 R= 9.70D-01
 Trust test= 9.70D-01 RLast= 2.29D-03 DXMaxT set to 4.05D-01
 The second derivative matrix:
                          R1        R2        R3        R4        R5
           R1           0.57969
           R2          -0.00599   0.34229
           R3           0.00077   0.00885   0.35515
           R4          -0.00196   0.02076   0.00002   0.34672
           R5          -0.00196   0.02076   0.00002  -0.00257   0.34672
           A1          -0.00193   0.03807   0.00272  -0.00335  -0.00335
           A2          -0.00214   0.03000   0.00258  -0.00406  -0.00406
           A3           0.00097   0.02463  -0.00274  -0.00158  -0.00158
           A4           0.00097   0.02463  -0.00274  -0.00158  -0.00158
           A5          -0.00258  -0.01884  -0.00178   0.00257   0.00257
           A6          -0.00258  -0.01884  -0.00178   0.00257   0.00257
           A7           0.00985  -0.04109   0.00886   0.00467   0.00467
           D1           0.00000   0.00000   0.00000   0.00000   0.00000
           D2           0.00705  -0.01237   0.00907  -0.00122  -0.00122
           D3          -0.00705   0.01237  -0.00907   0.00122   0.00122
                          A1        A2        A3        A4        A5
           A1           0.16864
           A2           0.00662   0.16011
           A3          -0.00570  -0.00305   0.15774
           A4          -0.00570  -0.00305  -0.00226   0.15774
           A5           0.00105  -0.00471   0.00753   0.00753   0.15462
           A6           0.00105  -0.00471   0.00753   0.00753  -0.00538
           A7           0.00251   0.01495  -0.00649  -0.00649  -0.00056
           D1           0.00000   0.00000   0.00000   0.00000   0.00000
           D2           0.00094   0.01626  -0.01472  -0.01472   0.00406
           D3          -0.00094  -0.01626   0.01472   0.01472  -0.00406
                          A6        A7        D1        D2        D3
           A6           0.15462
           A7          -0.00056   0.15979
           D1           0.00000   0.00000   0.01692
           D2           0.00406   0.00662   0.00000   0.02457
           D3          -0.00406  -0.00662   0.00000  -0.00765   0.02457
 ITU=  0  1  1  1  0
     Eigenvalues ---    0.01692   0.10536   0.10658   0.12030   0.16000
     Eigenvalues ---    0.16211   0.18802   0.32997   0.34928   0.35491
     Eigenvalues ---    0.38504   0.57999
 En-DIIS/RFO-DIIS IScMMF=        0 using points:     5    4    3
 RFO step:  Lambda=-1.13533085D-08.
 NNeg= 0 NP= 3 Switch=  2.50D-03 Rises=F DC=  2.89D-06 SmlDif=  1.00D-05
 RMS Error=  0.3862450643D-04 NUsed= 3 EDIIS=F
 DidBck=F Rises=F RFO-DIIS coefs:    0.94364    0.08377   -0.02741
 Iteration  1 RMS(Cart)=  0.00010822 RMS(Int)=  0.00000003
 Iteration  2 RMS(Cart)=  0.00000001 RMS(Int)=  0.00000003
 ITry= 1 IFail=0 DXMaxC= 2.55D-04 DCOld= 1.00D+10 DXMaxT= 4.05D-01 DXLimC= 3.00D+00 Rises=F
 ClnCor:  largest displacement from symmetrization is 2.87D-13 for atom     6.
 Variable       Old X    -DE/DX   Delta X   Delta X   Delta X     New X
                                 (Linear)    (Quad)   (Total)
    R1        1.82156  -0.00005   0.00001  -0.00010  -0.00009   1.82147
    R2        2.69649   0.00000  -0.00005   0.00004  -0.00001   2.69648
    R3        2.07201   0.00000  -0.00001   0.00001   0.00000   2.07201
    R4        2.08354   0.00001   0.00000   0.00002   0.00002   2.08356
    R5        2.08354   0.00001   0.00000   0.00002   0.00002   2.08356
    A1        1.90037  -0.00002  -0.00006  -0.00004  -0.00009   1.90028
    A2        1.86032  -0.00004  -0.00002  -0.00020  -0.00022   1.86010
    A3        1.95461   0.00002  -0.00001   0.00012   0.00011   1.95472
    A4        1.95461   0.00002  -0.00001   0.00012   0.00011   1.95472
    A5        1.89392   0.00000   0.00001  -0.00001   0.00000   1.89392
    A6        1.89392   0.00000   0.00001  -0.00001   0.00000   1.89392
    A7        1.90423  -0.00001   0.00001  -0.00003  -0.00002   1.90421
    D1        3.14159   0.00000   0.00000   0.00000   0.00000   3.14159
    D2       -1.07285  -0.00001   0.00000  -0.00007  -0.00007  -1.07292
    D3        1.07285   0.00001   0.00000   0.00007   0.00007   1.07292
         Item               Value     Threshold  Converged?
 Maximum Force            0.000054     0.000450     YES
 RMS     Force            0.000020     0.000300     YES
 Maximum Displacement     0.000255     0.001800     YES
 RMS     Displacement     0.000108     0.001200     YES
 Predicted change in Energy=-1.117396D-08
 Optimization completed.
    -- Stationary point found.
                           ----------------------------
                           !   Optimized Parameters   !
                           ! (Angstroms and Degrees)  !
 --------------------------                            --------------------------
 ! Name  Definition              Value          Derivative Info.                !
 --------------------------------------------------------------------------------
 ! R1    R(1,2)                  0.9639         -DE/DX =   -0.0001              !
 ! R2    R(1,3)                  1.4269         -DE/DX =    0.0                 !
 ! R3    R(3,4)                  1.0965         -DE/DX =    0.0                 !
 ! R4    R(3,5)                  1.1026         -DE/DX =    0.0                 !
 ! R5    R(3,6)                  1.1026         -DE/DX =    0.0                 !
 ! A1    A(2,1,3)              108.8831         -DE/DX =    0.0                 !
 ! A2    A(1,3,4)              106.5883         -DE/DX =    0.0                 !
 ! A3    A(1,3,5)              111.991          -DE/DX =    0.0                 !
 ! A4    A(1,3,6)              111.991          -DE/DX =    0.0                 !
 ! A5    A(4,3,5)              108.5138         -DE/DX =    0.0                 !
 ! A6    A(4,3,6)              108.5138         -DE/DX =    0.0                 !
 ! A7    A(5,3,6)              109.1044         -DE/DX =    0.0                 !
 ! D1    D(2,1,3,4)            180.0            -DE/DX =    0.0                 !
 ! D2    D(2,1,3,5)            -61.4699         -DE/DX =    0.0                 !
 ! D3    D(2,1,3,6)             61.4699         -DE/DX =    0.0                 !
 --------------------------------------------------------------------------------
 Lowest energy point so far.  Saving SCF results.
 GradGradGradGradGradGradGradGradGradGradGradGradGradGradGradGradGradGrad

 Largest change from initial coordinates is atom    6       0.065 Angstoms.
 Leave Link  103 at Wed Sep  2 14:53:52 2015, MaxMem=    33554432 cpu:         0.1
 (Enter /group/hpc-share/gaussian/2009D/g09/l202.exe)
                          Input orientation:                          
 ---------------------------------------------------------------------
 Center     Atomic      Atomic             Coordinates (Angstroms)
 Number     Number       Type             X           Y           Z
 ---------------------------------------------------------------------
      1          8           0       -0.027200    0.000000   -0.006103
      2          1           0       -0.038991    0.000000    0.957754
      3          6           0        1.328476    0.000000   -0.451361
      4          1           0        1.297978    0.000000   -1.547395
      5          1           0        1.873093    0.898194   -0.116281
      6          1           0        1.873093   -0.898194   -0.116281
 ---------------------------------------------------------------------
                    Distance matrix (angstroms):
                    1          2          3          4          5
     1  O    0.000000
     2  H    0.963929   0.000000
     3  C    1.426923   1.963560   0.000000
     4  H    2.032652   2.839588   1.096459   0.000000
     5  H    2.104757   2.369888   1.102561   1.784825   0.000000
     6  H    2.104757   2.369888   1.102561   1.784825   1.796389
                    6
     6  H    0.000000
 Stoichiometry    CH4O
 Framework group  CS[SG(CH2O),X(H2)]
 Deg. of freedom     8
 Full point group                 CS      NOp   2
 RotChk:  IX=0 Diff= 1.36D-15
 Largest Abelian subgroup         CS      NOp   2
 Largest concise Abelian subgroup CS      NOp   2
                         Standard orientation:                         
 ---------------------------------------------------------------------
 Center     Atomic      Atomic             Coordinates (Angstroms)
 Number     Number       Type             X           Y           Z
 ---------------------------------------------------------------------
      1          8           0       -0.046545   -0.759395    0.000000
      2          1           0        0.865507   -1.071359    0.000000
      3          6           0       -0.046545    0.667528    0.000000
      4          1           0       -1.097370    0.980560    0.000000
      5          1           0        0.441747    1.080394    0.898194
      6          1           0        0.441747    1.080394   -0.898194
 ---------------------------------------------------------------------
 Rotational constants (GHZ):    126.7845177     24.5399365     23.6955584
 Leave Link  202 at Wed Sep  2 14:53:52 2015, MaxMem=    33554432 cpu:         0.2
 (Enter /group/hpc-share/gaussian/2009D/g09/l601.exe)
 Copying SCF densities to generalized density rwf, IOpCl= 0 IROHF=0.

 **********************************************************************

            Population analysis using the SCF density.

 **********************************************************************

 Orbital symmetries:
       Occupied  (A') (A') (A') (A') (A') (A") (A') (A') (A")
       Virtual   (A') (A') (A") (A') (A') (A') (A") (A') (A') (A')
                 (A") (A') (A") (A') (A') (A') (A") (A') (A') (A")
                 (A') (A") (A") (A') (A') (A') (A") (A') (A') (A")
                 (A') (A') (A") (A') (A') (A") (A') (A') (A') (A")
                 (A") (A') (A') (A") (A') (A') (A") (A") (A') (A')
                 (A") (A') (A') (A") (A') (A") (A') (A") (A') (A')
                 (A') (A") (A') (A') (A") (A') (A') (A') (A") (A')
                 (A") (A') (A')
 The electronic state is 1-A'.
 Alpha  occ. eigenvalues --  -19.15367 -10.23273  -1.02602  -0.68789  -0.51315
 Alpha  occ. eigenvalues --   -0.44349  -0.43091  -0.34455  -0.28396
 Alpha virt. eigenvalues --   -0.01470   0.00585   0.02447   0.02965   0.06355
 Alpha virt. eigenvalues --    0.08417   0.10285   0.10817   0.12731   0.14471
 Alpha virt. eigenvalues --    0.15439   0.16053   0.16470   0.19448   0.22350
 Alpha virt. eigenvalues --    0.27132   0.28416   0.30893   0.32435   0.32854
 Alpha virt. eigenvalues --    0.33562   0.35768   0.40207   0.41651   0.45132
 Alpha virt. eigenvalues --    0.47275   0.48088   0.49383   0.51979   0.54646
 Alpha virt. eigenvalues --    0.55906   0.57256   0.60338   0.60915   0.72687
 Alpha virt. eigenvalues --    0.76719   0.80995   0.81965   0.89536   0.97983
 Alpha virt. eigenvalues --    1.02242   1.02335   1.13435   1.19669   1.26270
 Alpha virt. eigenvalues --    1.37653   1.47101   1.48351   1.49044   1.54162
 Alpha virt. eigenvalues --    1.61225   1.64648   1.81584   1.82842   1.82913
 Alpha virt. eigenvalues --    1.90353   1.93335   1.96618   2.03442   2.09891
 Alpha virt. eigenvalues --    2.18506   2.32644   2.38076   2.45631   2.54699
 Alpha virt. eigenvalues --    2.54920   2.69536   2.81596   3.34884   3.36244
 Alpha virt. eigenvalues --    3.39730   3.48871   3.85840
          Condensed to atoms (all electrons):
               1          2          3          4          5          6
     1  O    8.100352   0.287267   0.159050  -0.152245  -0.006782  -0.006782
     2  H    0.287267   0.695083  -0.051030   0.045708  -0.023228  -0.023228
     3  C    0.159050  -0.051030   3.818286   0.305366   0.272301   0.272301
     4  H   -0.152245   0.045708   0.305366   1.731945  -0.291472  -0.291472
     5  H   -0.006782  -0.023228   0.272301  -0.291472   1.564945  -0.233532
     6  H   -0.006782  -0.023228   0.272301  -0.291472  -0.233532   1.564945
 Mulliken charges:
               1
     1  O   -0.380861
     2  H    0.069428
     3  C    1.223726
     4  H   -0.347829
     5  H   -0.282232
     6  H   -0.282232
 Sum of Mulliken charges =   0.00000
 Mulliken charges with hydrogens summed into heavy atoms:
               1
     1  O   -0.311433
     3  C    0.311433
 Electronic spatial extent (au):  <R**2>=             85.6573
 Charge=              0.0000 electrons
 Dipole moment (field-independent basis, Debye):
    X=              1.3470    Y=              0.9644    Z=              0.0000  Tot=              1.6567
 Quadrupole moment (field-independent basis, Debye-Ang):
   XX=            -12.0108   YY=            -13.6694   ZZ=            -14.0337
   XY=             -2.1167   XZ=              0.0000   YZ=              0.0000
 Traceless Quadrupole moment (field-independent basis, Debye-Ang):
   XX=              1.2271   YY=             -0.4314   ZZ=             -0.7957
   XY=             -2.1167   XZ=              0.0000   YZ=              0.0000
 Octapole moment (field-independent basis, Debye-Ang**2):
  XXX=              0.9774  YYY=             -3.8645  ZZZ=              0.0000  XYY=              2.3037
  XXY=             -2.1110  XXZ=              0.0000  XZZ=              0.6840  YZZ=             -0.1369
  YYZ=              0.0000  XYZ=              0.0000
 Hexadecapole moment (field-independent basis, Debye-Ang**3):
 XXXX=            -20.8076 YYYY=            -66.4491 ZZZZ=            -21.6891 XXXY=             -1.2026
 XXXZ=              0.0000 YYYX=             -1.5727 YYYZ=              0.0000 ZZZX=              0.0000
 ZZZY=              0.0000 XXYY=            -13.3202 XXZZ=             -7.4862 YYZZ=            -15.3615
 XXYZ=              0.0000 YYXZ=              0.0000 ZZXY=              0.9332
 N-N= 4.009080979608D+01 E-N=-3.513751809971D+02  KE= 1.149445642143D+02
 Symmetry A'   KE= 1.084117166586D+02
 Symmetry A"   KE= 6.532847555746D+00
 No NMR shielding tensors so no spin-rotation constants.
 Leave Link  601 at Wed Sep  2 14:53:52 2015, MaxMem=    33554432 cpu:         1.5
 (Enter /group/hpc-share/gaussian/2009D/g09/l9999.exe)
 B after Tr=     0.018989    0.000000    0.008663
         Rot=    0.999990    0.000000   -0.004562    0.000000 Ang=  -0.52 deg.
 Final structure in terms of initial Z-matrix:
 O
 H,1,ho2
 C,1,co3,2,coh3
 H,3,hc4,1,hco4,2,dih4,0
 H,3,hc5,1,hco5,4,dih5,0
 H,3,hc6,1,hco6,4,dih6,0
      Variables:
 ho2=0.96392946
 co3=1.42692326
 coh3=108.88310029
 hc4=1.09645868
 hco4=106.58833821
 dih4=180.
 hc5=1.10256057
 hco5=111.99096831
 dih5=118.53013697
 hc6=1.10256057
 hco6=111.99096831
 dih6=-118.53013697
 1\1\GINC-HPC-CN12\FOpt\RB3LYP\Aug-CC-pVDZ\C1H4O1\6498IVANOVM\02-Sep-20
 15\0\\#P b3lyp/aug-cc-pvdz opt\\methanol\\0,1\O,-0.0290434679,0.,-0.01
 25628587\H,-0.0408345794,0.,0.9512944811\C,1.3266319706,0.,-0.45782018
 03\H,1.2961340575,0.,-1.5538546271\H,1.8712490724,0.8981944503,-0.1227
 399689\H,1.8712490724,-0.8981944503,-0.1227399689\\Version=EM64L-G09Re
 vD.01\State=1-A'\HF=-115.7424025\RMSD=1.227e-09\RMSF=1.824e-05\Dipole=
 0.5258571,0.,0.3851074\Quadrupole=-1.1337359,-0.5916155,1.7253514,0.,-
 0.9016778,0.\PG=CS [SG(C1H2O1),X(H2)]\\@


 IF YOU WISH TO UNDERSTAND THE FRAGRANCE OF THE ROSE, 
 OR THE TENACITY OF THE OAK; 
 IF YOU ARE NOT SATISFIED UNTIL YOU KNOW THE SECRET PATHS 
 BY WHICH THE SUNSHINE AND THE AIR ACHIEVE THESE WONDERS; 
 IF YOU WISH TO SEE THE PATTERN WHICH UNDERLIES ONE LARGE FIELD OF 
 HUMAN EXPERIENCE AND HUMAN MEASUREMENT, THEN TAKE UP CHEMISTRY.

                                         -- C. A. COULSON, 1973.
 Job cpu time:       0 days  0 hours  1 minutes 16.6 seconds.
 File lengths (MBytes):  RWF=      5 Int=      0 D2E=      0 Chk=      2 Scr=      1
 Normal termination of Gaussian 09 at Wed Sep  2 14:53:52 2015.
