 Entering Gaussian System, Link 0=g09
 Input=trans-mesno.com
 Output=trans-mesno.log
 AtFile(1): trans-mesno.zmat
             o
             n   1 no2
             s    2 sn3         1 sno3
             c    3 cs4         1 cso4          2 dih4
             h    4 hc5         3 hcs5          1 dih5
             h    4 hc6         3 hcs6          5 dih6
             h    4 hc7         3 hcs7          5 dih7
            
            no2         1.400000
            sn3         1.625000
            sno3        109.471
            cs4         1.710000
            cso4        109.471
            dih4          0.000
            hc5         1.089000
            hcs5        109.471
            dih5        180.000
            hc6         1.089000
            hcs6        109.471
            dih6        120.000
            hc7         1.089000
            hcs7        109.471
            dih7        240.000
 AtFile(1): /home/MARQNET/talipovm/basis-library/def2-SV(P)+d.gbs
            !  Def2-SV(P)  EMSL  Basis Set Exchange Library   3/29/11 8:36 AM
            ! Elements                             References
            ! --------                             ----------
            ! H He Li Be B C N O F Ne Na Mg Al Si P S Cl Ar K Ca Sc Ti V Cr Mn Fe Co Ni Cu Zn Ga Ge As Se Br Kr Rb Sr Y Zr Nb Mo Tc Ru Rh Pd Ag Cd In Sn Sb Te I Xe Cs Ba La Hf Ta W Re Os Ir Pt Au Hg Tl Pb Bi Po At Rn : F. Weigend and R. Ahlrichs, Phys. Chem. Chem. Phys., Balanced basis sets of split valence, triple zeta valence and quadruple zeta valence
            ! quality for H to Rn: Design and assessment of accuracy 7, 3297 (2005).
            !
            -H     0
            S   3   1.00
                 13.0107010              0.19682158E-01
                  1.9622572              0.13796524
                  0.44453796             0.47831935
            S   1   1.00
                  0.12194962             1.0000000
            ****
            -B     0
            S   5   1.00
                839.31830086            -0.55929201074E-02
                126.26464843            -0.41565520771E-01
                 28.620600763           -0.18299816983
                  7.8793722710          -0.46540391866
                  2.4088857172          -0.44173884791
            S   1   1.00
                  0.25105109036          1.0000000
            S   1   1.00
                  0.83648866069E-01            1.0000000
            P   3   1.00
                  6.0332223619          -0.35603672456E-01
                  1.2499157866          -0.19895775769
                  0.33871676350         -0.50850202618
            P   1   1.00
                  0.96415632351E-01            1.0000000
            D   1   1.00
                  0.5000000              1.0000000
            ****
            -C     0
            S   5   1.00
               1238.4016938              0.54568832082E-02
                186.29004992             0.40638409211E-01
                 42.251176346            0.18025593888
                 11.676557932            0.46315121755
                  3.5930506482           0.44087173314
            S   1   1.00
                  0.40245147363          1.0000000
            S   1   1.00
                  0.13090182668          1.0000000
            P   3   1.00
                  9.4680970621           0.38387871728E-01
                  2.0103545142           0.21117025112
                  0.54771004707          0.51328172114
            P   1   1.00
                  0.15268613795          1.0000000
            D   1   1.00
                  0.8000000              1.0000000
            ****
            -N     0
            S   5   1.00
               1712.8415853             -0.53934125305E-02
                257.64812677            -0.40221581118E-01
                 58.458245853           -0.17931144990
                 16.198367905           -0.46376317823
                  5.0052600809          -0.44171422662
            S   1   1.00
                  0.58731856571          1.0000000
            S   1   1.00
                  0.18764592253          1.0000000
            P   3   1.00
                 13.571470233           -0.40072398852E-01
                  2.9257372874          -0.21807045028
                  0.79927750754         -0.51294466049
            P   1   1.00
                  0.21954348034          1.0000000
            D   1   1.00
                  1.0000000              1.0000000
            ****
            -O     0
            S   5   1.00
               2266.1767785             -0.53431809926E-02
                340.87010191            -0.39890039230E-01
                 77.363135167           -0.17853911985
                 21.479644940           -0.46427684959
                  6.6589433124          -0.44309745172
            S   1   1.00
                  0.80975975668          1.0000000
            S   1   1.00
                  0.25530772234          1.0000000
            P   3   1.00
                 17.721504317            0.43394573193E-01
                  3.8635505440           0.23094120765
                  1.0480920883           0.51375311064
            P   1   1.00
                  0.27641544411          1.0000000
            D   1   1.00
                  1.2000000              1.0000000
            ****
            -F     0
            S   5   1.00
               2894.8325990             -0.53408255515E-02
                435.41939120            -0.39904258866E-01
                 98.843328866           -0.17912768038
                 27.485198001           -0.46758090825
                  8.5405498171          -0.44653131020
            S   1   1.00
                  1.0654578038           1.0000000
            S   1   1.00
                  0.33247346748          1.0000000
            P   3   1.00
                 22.696633924           -0.45212874436E-01
                  4.9872339257          -0.23754317067
                  1.3491613954          -0.51287353587
            P   1   1.00
                  0.34829881977          1.0000000
            D   1   1.00
                  1.4000000              1.0000000
            ****
            -S     0
            S   5   1.00
               9184.9303010             -0.22294387756E-02
               1381.5105503             -0.16683029937E-01
                313.87147580            -0.75262436116E-01
                 88.053870623           -0.19376827038
                 27.039914905           -0.17718020803
            S   3   1.00
                 45.648731303           -0.10736062573
                  4.9664522326           0.65066293018
                  2.0116242047           0.59712155354
            S   1   1.00
                  0.35661077013          1.0000000
            S   1   1.00
                  0.13507221477          1.0000000
            P   5   1.00
                261.98233439            -0.92729929822E-02
                 61.306894736           -0.66547669241E-01
                 19.103729887           -0.24828595903
                  6.6567720378          -0.48703847402
                  2.3959635161          -0.39337850312
            P   1   1.00
                  0.61776161679          1.0000000
            P   1   1.00
                  0.16993376871          1.0000000
            D   1   1.00
                  0.5500000              1.0000000
            D   1   1.00
                  2.9940000              1.0000000
            ****
            -Cl     0
            S   5   1.00
              10449.8275660              0.19708362484E-02
               1571.7365221              0.14754727977E-01
                357.12065523             0.66679112875E-01
                100.25185935             0.17228924084
                 30.812727554            0.15883786100
            S   3   1.00
                 51.923789434           -0.10009298909
                  5.7045760975           0.60841752753
                  2.3508376809           0.54352153355
            S   1   1.00
                  0.44605124672          1.0000000
            S   1   1.00
                  0.16848856190          1.0000000
            P   5   1.00
                307.66790569            -0.87801484118E-02
                 72.102015515           -0.63563355471E-01
                 22.532680262           -0.24016428276
                  7.8991765444          -0.47798866557
                  2.8767268321          -0.38515850005
            P   1   1.00
                  0.77459363955          1.0000000
            P   1   1.00
                  0.21037699698          1.0000000
            D   1   1.00
                  0.6500000              1.0000000
            D   1   1.00
                  3.6520000              1.0000000
            ****
            -Al     0
            S   5   1.00
               5887.5727030              0.13483347987E-02
                885.61225996             0.10071576809E-01
                201.13604899             0.45132454056E-01
                 56.284974674            0.11461268043
                 17.229551243            0.10159608943
            S   3   1.00
                 29.340249922            0.69347454208E-01
                  3.0439630420          -0.42528117679
                  1.1285539518          -0.41449832210
            S   1   1.00
                  0.14234175160          1.0000000
            S   1   1.00
                  0.54400192313E-01            1.0000000
            P   5   1.00
                145.11918809             0.63963373134E-02
                 33.717894833            0.44189359965E-01
                 10.369863083            0.15581575993
                  3.5135616036           0.28635286951
                  1.1980050273           0.22921423248
            P   1   1.00
                  0.26583005913          1.0000000
            P   1   1.00
                  0.71003361994E-01            1.0000000
            D   1   1.00
                  0.3000000              1.0000000
            D   1   1.00
                  1.1950000              1.0000000
            ****
            -Ti     0
            S   6   1.00
              42961.5121850              0.39127635355E-02
               6450.9759169              0.29969820489E-01
               1467.7210915              0.14836352707
                414.20997355             0.51347285324
                134.48715840             1.0335365483
                 46.122209796            0.77854233930
            S   3   1.00
                 89.447762543           -0.28385401259
                 10.223346060            1.6772785333
                  4.1353774271           1.2411928456
            S   3   1.00
                  6.7896181452          -0.78399994518E-02
                  1.1106730691           0.25495493019E-01
                  0.47565975578          0.16061172892E-01
            S   1   1.00
                  0.65986956934E-01            1.0000000
            S   1   1.00
                  0.25210342250E-01            1.0000000
            P   5   1.00
                522.03684782             0.19754179642E-01
                122.68649489             0.14460677619
                 38.572903611            0.54669004165
                 13.672169319            1.0531647540
                  5.0118529359           0.69111213363
            P   3   1.00
                  2.4131928282           0.75803437136
                  0.93252270050          1.3036241399
                  0.35429058390          0.53638653300
            P   1   1.00
                  0.1015610              1.0000000
            D   4   1.00
                 23.465125957            0.26536380115E-01
                  6.3332593832           0.13796453963
                  2.0766489946           0.35312644228
                  0.69027361954          0.48647124166
            D   1   1.00
                  0.21088738554          1.0000000
            ****
            -P     0
            S   5   1.00
               8002.4795106              0.57503489302E-02
               1203.6813590              0.43007628959E-01
                273.44227031             0.19363986252
                 76.655541517            0.49651693399
                 23.516927435            0.44983262479
            S   3   1.00
                 39.791683439            0.95188129789E-01
                  4.2770343323          -0.57649840368
                  1.6940256888          -0.54239583865
            S   1   1.00
                  0.27567674644          1.0000000
            S   1   1.00
                  0.10495590099          1.0000000
            P   5   1.00
                219.50755823             0.92100565257E-02
                 51.274155030            0.65409765745E-01
                 15.921595892            0.24033730279
                  5.5069913481           0.46318321788
                  1.9537719426           0.37392563382
            P   1   1.00
                  0.47803397932          1.0000000
            P   1   1.00
                  0.13657952621          1.0000000
            D   1   1.00
                  0.4500000              1.0000000
            D   1   1.00
                   2.5060000              1.0000000
            ****
 Initial command:
 /group/hpc-share/gaussian/2009D/g09/l1.exe "/scratch/gaussian/g_trans-mesno.com-809710.hn1.marqnet.mu.edu/Gau-29676.inp" -scrdir="/scratch/gaussian/g_trans-mesno.com-809710.hn1.marqnet.mu.edu/"
 Entering Link 1 = /group/hpc-share/gaussian/2009D/g09/l1.exe PID=     29680.
  
 Copyright (c) 1988,1990,1992,1993,1995,1998,2003,2009,2013,
            Gaussian, Inc.  All Rights Reserved.
  
 This is part of the Gaussian(R) 09 program.  It is based on
 the Gaussian(R) 03 system (copyright 2003, Gaussian, Inc.),
 the Gaussian(R) 98 system (copyright 1998, Gaussian, Inc.),
 the Gaussian(R) 94 system (copyright 1995, Gaussian, Inc.),
 the Gaussian 92(TM) system (copyright 1992, Gaussian, Inc.),
 the Gaussian 90(TM) system (copyright 1990, Gaussian, Inc.),
 the Gaussian 88(TM) system (copyright 1988, Gaussian, Inc.),
 the Gaussian 86(TM) system (copyright 1986, Carnegie Mellon
 University), and the Gaussian 82(TM) system (copyright 1983,
 Carnegie Mellon University). Gaussian is a federally registered
 trademark of Gaussian, Inc.
  
 This software contains proprietary and confidential information,
 including trade secrets, belonging to Gaussian, Inc.
  
 This software is provided under written license and may be
 used, copied, transmitted, or stored only in accord with that
 written license.
  
 The following legend is applicable only to US Government
 contracts under FAR:
  
                    RESTRICTED RIGHTS LEGEND
  
 Use, reproduction and disclosure by the US Government is
 subject to restrictions as set forth in subparagraphs (a)
 and (c) of the Commercial Computer Software - Restricted
 Rights clause in FAR 52.227-19.
  
 Gaussian, Inc.
 340 Quinnipiac St., Bldg. 40, Wallingford CT 06492
  
  
 ---------------------------------------------------------------
 Warning -- This program may not be used in any manner that
 competes with the business of Gaussian, Inc. or will provide
 assistance to any competitor of Gaussian, Inc.  The licensee
 of this program is prohibited from giving any competitor of
 Gaussian, Inc. access to this program.  By using this program,
 the user acknowledges that Gaussian, Inc. is engaged in the
 business of creating and licensing software in the field of
 computational chemistry and represents and warrants to the
 licensee that it is not a competitor of Gaussian, Inc. and that
 it will not use this program in any manner prohibited above.
 ---------------------------------------------------------------
  

 Cite this work as:
 Gaussian 09, Revision D.01,
 M. J. Frisch, G. W. Trucks, H. B. Schlegel, G. E. Scuseria, 
 M. A. Robb, J. R. Cheeseman, G. Scalmani, V. Barone, B. Mennucci, 
 G. A. Petersson, H. Nakatsuji, M. Caricato, X. Li, H. P. Hratchian, 
 A. F. Izmaylov, J. Bloino, G. Zheng, J. L. Sonnenberg, M. Hada, 
 M. Ehara, K. Toyota, R. Fukuda, J. Hasegawa, M. Ishida, T. Nakajima, 
 Y. Honda, O. Kitao, H. Nakai, T. Vreven, J. A. Montgomery, Jr., 
 J. E. Peralta, F. Ogliaro, M. Bearpark, J. J. Heyd, E. Brothers, 
 K. N. Kudin, V. N. Staroverov, T. Keith, R. Kobayashi, J. Normand, 
 K. Raghavachari, A. Rendell, J. C. Burant, S. S. Iyengar, J. Tomasi, 
 M. Cossi, N. Rega, J. M. Millam, M. Klene, J. E. Knox, J. B. Cross, 
 V. Bakken, C. Adamo, J. Jaramillo, R. Gomperts, R. E. Stratmann, 
 O. Yazyev, A. J. Austin, R. Cammi, C. Pomelli, J. W. Ochterski, 
 R. L. Martin, K. Morokuma, V. G. Zakrzewski, G. A. Voth, 
 P. Salvador, J. J. Dannenberg, S. Dapprich, A. D. Daniels, 
 O. Farkas, J. B. Foresman, J. V. Ortiz, J. Cioslowski, 
 and D. J. Fox, Gaussian, Inc., Wallingford CT, 2013.
 
 ******************************************
 Gaussian 09:  EM64L-G09RevD.01 24-Apr-2013
                17-Sep-2015 
 ******************************************
 %nproc=8
 Will use up to    8 processors via shared memory.
 %chk=trans-mesno.chk
 ------------------
 #P PBE1PBE/gen opt
 ------------------
 1/14=-1,18=20,19=15,26=3,38=1/1,3;
 2/9=110,12=2,17=6,18=5,40=1/2;
 3/5=7,11=2,16=1,25=1,30=1,71=1,74=-13/1,2,3;
 4//1;
 5/5=2,38=5/2;
 6/7=2,8=2,9=2,10=2,28=1/1;
 7//1,2,3,16;
 1/14=-1,18=20,19=15,26=3/3(2);
 2/9=110/2;
 99//99;
 2/9=110/2;
 3/5=7,6=1,11=2,16=1,25=1,30=1,71=1,74=-13,82=7/1,2,3;
 4/5=5,16=3,69=1/1;
 5/5=2,38=5/2;
 7//1,2,3,16;
 1/14=-1,18=20,19=15,26=3/3(-5);
 2/9=110/2;
 6/7=2,8=2,9=2,10=2,19=2,28=1/1;
 99/9=1/99;
 Leave Link    1 at Thu Sep 17 12:30:10 2015, MaxMem=           0 cpu:         0.4
 (Enter /group/hpc-share/gaussian/2009D/g09/l101.exe)
 -----------
 trans-mesno
 -----------
 Symbolic Z-matrix:
 Charge =  0 Multiplicity = 1
 o
 n                    1    no2
 s                    2    sn3      1    sno3
 c                    3    cs4      1    cso4     2    dih4     0
 h                    4    hc5      3    hcs5     1    dih5     0
 h                    4    hc6      3    hcs6     5    dih6     0
 h                    4    hc7      3    hcs7     5    dih7     0
       Variables:
  no2                   1.4                      
  sn3                   1.625                    
  sno3                109.471                    
  cs4                   1.71                     
  cso4                109.471                    
  dih4                  0.                       
  hc5                   1.089                    
  hcs5                109.471                    
  dih5                180.                       
  hc6                   1.089                    
  hcs6                109.471                    
  dih6                120.                       
  hc7                   1.089                    
  hcs7                109.471                    
  dih7                240.                       
 
     5 tetrahedral angles replaced.
 NAtoms=      7 NQM=        7 NQMF=       0 NMMI=      0 NMMIF=      0
                NMic=       0 NMicF=      0.
                    Isotopes and Nuclear Properties:
 (Nuclear quadrupole moments (NQMom) in fm**2, nuclear magnetic moments (NMagM)
  in nuclear magnetons)

  Atom         1           2           3           4           5           6           7
 IAtWgt=          16          14          32          12           1           1           1
 AtmWgt=  15.9949146  14.0030740  31.9720718  12.0000000   1.0078250   1.0078250   1.0078250
 NucSpn=           0           2           0           0           1           1           1
 AtZEff=   0.0000000   0.0000000   0.0000000   0.0000000   0.0000000   0.0000000   0.0000000
 NQMom=    0.0000000   2.0440000   0.0000000   0.0000000   0.0000000   0.0000000   0.0000000
 NMagM=    0.0000000   0.4037610   0.0000000   0.0000000   2.7928460   2.7928460   2.7928460
 AtZNuc=   8.0000000   7.0000000  16.0000000   6.0000000   1.0000000   1.0000000   1.0000000
 Leave Link  101 at Thu Sep 17 12:30:11 2015, MaxMem=    33554432 cpu:         1.3
 (Enter /group/hpc-share/gaussian/2009D/g09/l103.exe)

 GradGradGradGradGradGradGradGradGradGradGradGradGradGradGradGradGradGrad
 Berny optimization.
 Initialization pass.
                           ----------------------------
                           !    Initial Parameters    !
                           ! (Angstroms and Degrees)  !
 --------------------------                            --------------------------
 ! Name  Definition              Value          Derivative Info.                !
 --------------------------------------------------------------------------------
 ! R1    R(1,2)                  1.4            estimate D2E/DX2                !
 ! R2    R(2,3)                  1.625          estimate D2E/DX2                !
 ! R3    R(3,4)                  1.71           estimate D2E/DX2                !
 ! R4    R(4,5)                  1.089          estimate D2E/DX2                !
 ! R5    R(4,6)                  1.089          estimate D2E/DX2                !
 ! R6    R(4,7)                  1.089          estimate D2E/DX2                !
 ! A1    A(1,2,3)              109.4712         estimate D2E/DX2                !
 ! A2    A(2,3,4)               77.2175         estimate D2E/DX2                !
 ! A3    A(3,4,5)              109.4712         estimate D2E/DX2                !
 ! A4    A(3,4,6)              109.4712         estimate D2E/DX2                !
 ! A5    A(3,4,7)              109.4712         estimate D2E/DX2                !
 ! A6    A(5,4,6)              109.4712         estimate D2E/DX2                !
 ! A7    A(5,4,7)              109.4712         estimate D2E/DX2                !
 ! A8    A(6,4,7)              109.4712         estimate D2E/DX2                !
 ! D1    D(1,2,3,4)            180.0            estimate D2E/DX2                !
 ! D2    D(2,3,4,5)            180.0            estimate D2E/DX2                !
 ! D3    D(2,3,4,6)            -60.0            estimate D2E/DX2                !
 ! D4    D(2,3,4,7)             60.0            estimate D2E/DX2                !
 --------------------------------------------------------------------------------
 Trust Radius=3.00D-01 FncErr=1.00D-07 GrdErr=1.00D-06
 Number of steps in this run=     28 maximum allowed number of steps=    100.
 GradGradGradGradGradGradGradGradGradGradGradGradGradGradGradGradGradGrad

 Leave Link  103 at Thu Sep 17 12:30:11 2015, MaxMem=    33554432 cpu:         0.0
 (Enter /group/hpc-share/gaussian/2009D/g09/l202.exe)
                          Input orientation:                          
 ---------------------------------------------------------------------
 Center     Atomic      Atomic             Coordinates (Angstroms)
 Number     Number       Type             X           Y           Z
 ---------------------------------------------------------------------
      1          8           0        0.000000    0.000000    0.000000
      2          7           0        0.000000    0.000000    1.400000
      3         16           0        1.532065    0.000000    1.941667
      4          6           0        0.619490    0.000000    3.387802
      5          1           0        1.294058    0.000000    4.242717
      6          1           0       -0.008376    0.889165    3.420825
      7          1           0       -0.008376   -0.889165    3.420825
 ---------------------------------------------------------------------
                    Distance matrix (angstroms):
                    1          2          3          4          5
     1  O    0.000000
     2  N    1.400000   0.000000
     3  S    2.473316   1.625000   0.000000
     4  C    3.443976   2.082096   1.710000   0.000000
     5  H    4.435678   3.123400   2.313327   1.089000   0.000000
     6  H    3.534505   2.207808   2.313327   1.089000   1.778330
     7  H    3.534505   2.207808   2.313327   1.089000   1.778330
                    6          7
     6  H    0.000000
     7  H    1.778330   0.000000
 Stoichiometry    CH3NOS
 Framework group  CS[SG(CHNOS),X(H2)]
 Deg. of freedom    10
 Full point group                 CS      NOp   2
 Largest Abelian subgroup         CS      NOp   2
 Largest concise Abelian subgroup CS      NOp   2
                         Standard orientation:                         
 ---------------------------------------------------------------------
 Center     Atomic      Atomic             Coordinates (Angstroms)
 Number     Number       Type             X           Y           Z
 ---------------------------------------------------------------------
      1          8           0       -1.658165   -1.029426    0.000000
      2          7           0       -0.277874   -0.795340    0.000000
      3         16           0        0.000000    0.805725    0.000000
      4          6           0        1.578363    0.147798    0.000000
      5          1           0        2.308453    0.955814    0.000000
      6          1           0        1.715903   -0.465709    0.889165
      7          1           0        1.715903   -0.465709   -0.889165
 ---------------------------------------------------------------------
 Rotational constants (GHZ):     16.8968925      4.7099168      3.7708258
 Leave Link  202 at Thu Sep 17 12:30:11 2015, MaxMem=    33554432 cpu:         0.2
 (Enter /group/hpc-share/gaussian/2009D/g09/l301.exe)
 General basis read from cards:  (5D, 7F)
 Centers:       5      6      7
 S 3 1.00
     Exponent=  1.3010701000D+01 Coefficients=  1.9682158000D-02
     Exponent=  1.9622572000D+00 Coefficients=  1.3796524000D-01
     Exponent=  4.4453796000D-01 Coefficients=  4.7831935000D-01
 S 1 1.00
     Exponent=  1.2194962000D-01 Coefficients=  1.0000000000D+00
 ****
 Centers:       4
 S 5 1.00
     Exponent=  1.2384016938D+03 Coefficients=  5.4568832082D-03
     Exponent=  1.8629004992D+02 Coefficients=  4.0638409211D-02
     Exponent=  4.2251176346D+01 Coefficients=  1.8025593888D-01
     Exponent=  1.1676557932D+01 Coefficients=  4.6315121755D-01
     Exponent=  3.5930506482D+00 Coefficients=  4.4087173314D-01
 S 1 1.00
     Exponent=  4.0245147363D-01 Coefficients=  1.0000000000D+00
 S 1 1.00
     Exponent=  1.3090182668D-01 Coefficients=  1.0000000000D+00
 P 3 1.00
     Exponent=  9.4680970621D+00 Coefficients=  3.8387871728D-02
     Exponent=  2.0103545142D+00 Coefficients=  2.1117025112D-01
     Exponent=  5.4771004707D-01 Coefficients=  5.1328172114D-01
 P 1 1.00
     Exponent=  1.5268613795D-01 Coefficients=  1.0000000000D+00
 D 1 1.00
     Exponent=  8.0000000000D-01 Coefficients=  1.0000000000D+00
 ****
 Centers:       2
 S 5 1.00
     Exponent=  1.7128415853D+03 Coefficients= -5.3934125305D-03
     Exponent=  2.5764812677D+02 Coefficients= -4.0221581118D-02
     Exponent=  5.8458245853D+01 Coefficients= -1.7931144990D-01
     Exponent=  1.6198367905D+01 Coefficients= -4.6376317823D-01
     Exponent=  5.0052600809D+00 Coefficients= -4.4171422662D-01
 S 1 1.00
     Exponent=  5.8731856571D-01 Coefficients=  1.0000000000D+00
 S 1 1.00
     Exponent=  1.8764592253D-01 Coefficients=  1.0000000000D+00
 P 3 1.00
     Exponent=  1.3571470233D+01 Coefficients= -4.0072398852D-02
     Exponent=  2.9257372874D+00 Coefficients= -2.1807045028D-01
     Exponent=  7.9927750754D-01 Coefficients= -5.1294466049D-01
 P 1 1.00
     Exponent=  2.1954348034D-01 Coefficients=  1.0000000000D+00
 D 1 1.00
     Exponent=  1.0000000000D+00 Coefficients=  1.0000000000D+00
 ****
 Centers:       1
 S 5 1.00
     Exponent=  2.2661767785D+03 Coefficients= -5.3431809926D-03
     Exponent=  3.4087010191D+02 Coefficients= -3.9890039230D-02
     Exponent=  7.7363135167D+01 Coefficients= -1.7853911985D-01
     Exponent=  2.1479644940D+01 Coefficients= -4.6427684959D-01
     Exponent=  6.6589433124D+00 Coefficients= -4.4309745172D-01
 S 1 1.00
     Exponent=  8.0975975668D-01 Coefficients=  1.0000000000D+00
 S 1 1.00
     Exponent=  2.5530772234D-01 Coefficients=  1.0000000000D+00
 P 3 1.00
     Exponent=  1.7721504317D+01 Coefficients=  4.3394573193D-02
     Exponent=  3.8635505440D+00 Coefficients=  2.3094120765D-01
     Exponent=  1.0480920883D+00 Coefficients=  5.1375311064D-01
 P 1 1.00
     Exponent=  2.7641544411D-01 Coefficients=  1.0000000000D+00
 D 1 1.00
     Exponent=  1.2000000000D+00 Coefficients=  1.0000000000D+00
 ****
 Centers:       3
 S 5 1.00
     Exponent=  9.1849303010D+03 Coefficients= -2.2294387756D-03
     Exponent=  1.3815105503D+03 Coefficients= -1.6683029937D-02
     Exponent=  3.1387147580D+02 Coefficients= -7.5262436116D-02
     Exponent=  8.8053870623D+01 Coefficients= -1.9376827038D-01
     Exponent=  2.7039914905D+01 Coefficients= -1.7718020803D-01
 S 3 1.00
     Exponent=  4.5648731303D+01 Coefficients= -1.0736062573D-01
     Exponent=  4.9664522326D+00 Coefficients=  6.5066293018D-01
     Exponent=  2.0116242047D+00 Coefficients=  5.9712155354D-01
 S 1 1.00
     Exponent=  3.5661077013D-01 Coefficients=  1.0000000000D+00
 S 1 1.00
     Exponent=  1.3507221477D-01 Coefficients=  1.0000000000D+00
 P 5 1.00
     Exponent=  2.6198233439D+02 Coefficients= -9.2729929822D-03
     Exponent=  6.1306894736D+01 Coefficients= -6.6547669241D-02
     Exponent=  1.9103729887D+01 Coefficients= -2.4828595903D-01
     Exponent=  6.6567720378D+00 Coefficients= -4.8703847402D-01
     Exponent=  2.3959635161D+00 Coefficients= -3.9337850312D-01
 P 1 1.00
     Exponent=  6.1776161679D-01 Coefficients=  1.0000000000D+00
 P 1 1.00
     Exponent=  1.6993376871D-01 Coefficients=  1.0000000000D+00
 D 1 1.00
     Exponent=  5.5000000000D-01 Coefficients=  1.0000000000D+00
 D 1 1.00
     Exponent=  2.9940000000D+00 Coefficients=  1.0000000000D+00
 ****
 Ernie: Thresh=  0.10000D-02 Tol=  0.10000D-05 Strict=F.
 There are    55 symmetry adapted cartesian basis functions of A'  symmetry.
 There are    21 symmetry adapted cartesian basis functions of A"  symmetry.
 There are    50 symmetry adapted basis functions of A'  symmetry.
 There are    21 symmetry adapted basis functions of A"  symmetry.
    71 basis functions,   130 primitive gaussians,    76 cartesian basis functions
    20 alpha electrons       20 beta electrons
       nuclear repulsion energy       161.2948246114 Hartrees.
 IExCor= 1009 DFT=T Ex+Corr=PBE1PBE ExCW=0 ScaHFX=  0.250000
 ScaDFX=  0.750000  0.750000  1.000000  1.000000 ScalE2=  1.000000  1.000000
 IRadAn=      0 IRanWt=     -1 IRanGd=            0 ICorTp=0 IEmpDi=  4
 NAtoms=    7 NActive=    7 NUniq=    6 SFac= 1.36D+00 NAtFMM=   60 NAOKFM=F Big=F
 Integral buffers will be    131072 words long.
 Raffenetti 2 integral format.
 Two-electron integral symmetry is turned on.
 Leave Link  301 at Thu Sep 17 12:30:11 2015, MaxMem=    33554432 cpu:         1.5
 (Enter /group/hpc-share/gaussian/2009D/g09/l302.exe)
 NPDir=0 NMtPBC=     1 NCelOv=     1 NCel=       1 NClECP=     1 NCelD=      1
         NCelK=      1 NCelE2=     1 NClLst=     1 CellRange=     0.0.
 One-electron integrals computed using PRISM.
 One-electron integral symmetry used in STVInt
 NBasis=    71 RedAO= T EigKep=  7.74D-03  NBF=    50    21
 NBsUse=    71 1.00D-06 EigRej= -1.00D+00 NBFU=    50    21
 Precomputing XC quadrature grid using
 IXCGrd= 4 IRadAn=           0 IRanWt=          -1 IRanGd=           0 AccXCQ= 0.00D+00.
 Generated NRdTot=       0 NPtTot=           0 NUsed=           0 NTot=          32
 NSgBfM=    76    76    76    76    76 MxSgAt=     7 MxSgA2=     7.
 Leave Link  302 at Thu Sep 17 12:30:12 2015, MaxMem=    33554432 cpu:         1.7
 (Enter /group/hpc-share/gaussian/2009D/g09/l303.exe)
 DipDrv:  MaxL=1.
 Leave Link  303 at Thu Sep 17 12:30:12 2015, MaxMem=    33554432 cpu:         0.2
 (Enter /group/hpc-share/gaussian/2009D/g09/l401.exe)
 ExpMin= 1.22D-01 ExpMax= 9.18D+03 ExpMxC= 1.38D+03 IAcc=1 IRadAn=         1 AccDes= 0.00D+00
 Harris functional with IExCor= 1009 and IRadAn=       1 diagonalized for initial guess.
 HarFok:  IExCor= 1009 AccDes= 0.00D+00 IRadAn=         1 IDoV= 1 UseB2=F ITyADJ=14
 ICtDFT=  3500011 ScaDFX=  1.000000  1.000000  1.000000  1.000000
 FoFCou: FMM=F IPFlag=           0 FMFlag=      100000 FMFlg1=           0
         NFxFlg=           0 DoJE=T BraDBF=F KetDBF=T FulRan=T
         wScrn=  0.000000 ICntrl=     500 IOpCl=  0 I1Cent=   200000004 NGrid=           0
         NMat0=    1 NMatS0=      1 NMatT0=    0 NMatD0=    1 NMtDS0=    0 NMtDT0=    0
 Petite list used in FoFCou.
 Harris En= -567.344104094325    
 JPrj=0 DoOrth=F DoCkMO=F.
 Initial guess orbital symmetries:
       Occupied  (A') (A') (A') (A') (A') (A') (A') (A") (A') (A')
                 (A') (A') (A') (A") (A') (A') (A") (A') (A") (A')
       Virtual   (A") (A') (A') (A') (A") (A') (A') (A') (A") (A')
                 (A') (A") (A') (A') (A") (A') (A") (A') (A') (A')
                 (A") (A') (A") (A') (A') (A') (A") (A') (A') (A')
                 (A') (A") (A') (A") (A') (A") (A') (A') (A") (A')
                 (A') (A") (A') (A") (A') (A') (A") (A") (A') (A')
                 (A')
 The electronic state of the initial guess is 1-A'.
 Leave Link  401 at Thu Sep 17 12:30:12 2015, MaxMem=    33554432 cpu:         1.1
 (Enter /group/hpc-share/gaussian/2009D/g09/l502.exe)
 Closed shell SCF:
 Using DIIS extrapolation, IDIIS=  1040.
 Integral symmetry usage will be decided dynamically.
 Keep R1 ints in memory in symmetry-blocked form, NReq=4997642.
 IVT=       37168 IEndB=       37168 NGot=    33554432 MDV=    31824708
 LenX=    31824708 LenY=    31818491
 Requested convergence on RMS density matrix=1.00D-08 within 128 cycles.
 Requested convergence on MAX density matrix=1.00D-06.
 Requested convergence on             energy=1.00D-06.
 No special actions if energy rises.
 FoFCou: FMM=F IPFlag=           0 FMFlag=           0 FMFlg1=           0
         NFxFlg=           0 DoJE=F BraDBF=F KetDBF=F FulRan=T
         wScrn=  0.000000 ICntrl=     600 IOpCl=  0 I1Cent=           0 NGrid=           0
         NMat0=    1 NMatS0=   2556 NMatT0=    0 NMatD0=    1 NMtDS0=    0 NMtDT0=    0
 Petite list used in FoFCou.
 Integral accuracy reduced to 1.0D-05 until final iterations.

 Cycle   1  Pass 0  IDiag  1:
 E= -567.095973845855    
 DIIS: error= 4.53D-02 at cycle   1 NSaved=   1.
 NSaved= 1 IEnMin= 1 EnMin= -567.095973845855     IErMin= 1 ErrMin= 4.53D-02
 ErrMax= 4.53D-02  0.00D+00 EMaxC= 1.00D-01 BMatC= 2.14D-01 BMatP= 2.14D-01
 IDIUse=3 WtCom= 5.47D-01 WtEn= 4.53D-01
 Coeff-Com:  0.100D+01
 Coeff-En:   0.100D+01
 Coeff:      0.100D+01
 Gap=     0.018 Goal=   None    Shift=    0.000
 GapD=    0.018 DampG=0.250 DampE=0.500 DampFc=0.2500 IDamp=-1.
 Damping current iteration by 2.50D-01
 RMSDP=3.59D-02 MaxDP=4.97D-01              OVMax= 4.49D-01

 Cycle   2  Pass 0  IDiag  1:
 E= -567.048432814681     Delta-E=        0.047541031174 Rises=F Damp=T
 DIIS: error= 1.95D-02 at cycle   2 NSaved=   2.
 NSaved= 2 IEnMin= 1 EnMin= -567.095973845855     IErMin= 2 ErrMin= 1.95D-02
 ErrMax= 1.95D-02  0.00D+00 EMaxC= 1.00D-01 BMatC= 4.75D-02 BMatP= 2.14D-01
 IDIUse=3 WtCom= 8.05D-01 WtEn= 1.95D-01
 Coeff-Com:  0.186D+00 0.814D+00
 Coeff-En:   0.588D+00 0.412D+00
 Coeff:      0.264D+00 0.736D+00
 Gap=     0.147 Goal=   None    Shift=    0.000
 RMSDP=9.01D-03 MaxDP=1.05D-01 DE= 4.75D-02 OVMax= 4.00D-01

 Cycle   3  Pass 0  IDiag  1:
 E= -567.214611363365     Delta-E=       -0.166178548684 Rises=F Damp=F
 DIIS: error= 4.11D-02 at cycle   3 NSaved=   3.
 NSaved= 3 IEnMin= 3 EnMin= -567.214611363365     IErMin= 2 ErrMin= 1.95D-02
 ErrMax= 4.11D-02  0.00D+00 EMaxC= 1.00D-01 BMatC= 1.17D-01 BMatP= 4.75D-02
 IDIUse=2 WtCom= 0.00D+00 WtEn= 1.00D+00
 EnCoef did     2 forward-backward iterations
 Coeff-En:   0.147D+00 0.785D-01 0.775D+00
 Coeff:      0.147D+00 0.785D-01 0.775D+00
 Gap=     0.081 Goal=   None    Shift=    0.000
 RMSDP=1.26D-02 MaxDP=2.55D-01 DE=-1.66D-01 OVMax= 4.96D-01

 Cycle   4  Pass 0  IDiag  1:
 E= -566.639052002659     Delta-E=        0.575559360706 Rises=F Damp=F
 DIIS: error= 1.22D-01 at cycle   4 NSaved=   4.
 NSaved= 4 IEnMin= 3 EnMin= -567.214611363365     IErMin= 2 ErrMin= 1.95D-02
 ErrMax= 1.22D-01  0.00D+00 EMaxC= 1.00D-01 BMatC= 7.55D-01 BMatP= 4.75D-02
 IDIUse=2 WtCom= 0.00D+00 WtEn= 1.00D+00
 EnCoef did     2 forward-backward iterations
 Coeff-En:   0.118D+00 0.000D+00 0.687D+00 0.195D+00
 Coeff:      0.118D+00 0.000D+00 0.687D+00 0.195D+00
 Gap=     0.105 Goal=   None    Shift=    0.000
 RMSDP=7.45D-03 MaxDP=1.43D-01 DE= 5.76D-01 OVMax= 2.95D-01

 Cycle   5  Pass 0  IDiag  1:
 E= -567.281559932657     Delta-E=       -0.642507929998 Rises=F Damp=F
 DIIS: error= 3.22D-02 at cycle   5 NSaved=   5.
 NSaved= 5 IEnMin= 5 EnMin= -567.281559932657     IErMin= 2 ErrMin= 1.95D-02
 ErrMax= 3.22D-02  0.00D+00 EMaxC= 1.00D-01 BMatC= 5.19D-02 BMatP= 4.75D-02
 IDIUse=3 WtCom= 6.78D-01 WtEn= 3.22D-01
 Coeff-Com:  0.227D-01 0.184D-01 0.328D+00-0.573D-01 0.688D+00
 Coeff-En:   0.000D+00 0.000D+00 0.336D+00 0.000D+00 0.664D+00
 Coeff:      0.154D-01 0.125D-01 0.331D+00-0.388D-01 0.680D+00
 Gap=     0.149 Goal=   None    Shift=    0.000
 RMSDP=2.67D-03 MaxDP=5.46D-02 DE=-6.43D-01 OVMax= 8.20D-02

 Cycle   6  Pass 0  IDiag  1:
 E= -567.324972017308     Delta-E=       -0.043412084651 Rises=F Damp=F
 DIIS: error= 4.03D-03 at cycle   6 NSaved=   6.
 NSaved= 6 IEnMin= 6 EnMin= -567.324972017308     IErMin= 6 ErrMin= 4.03D-03
 ErrMax= 4.03D-03  0.00D+00 EMaxC= 1.00D-01 BMatC= 1.03D-03 BMatP= 4.75D-02
 IDIUse=3 WtCom= 9.60D-01 WtEn= 4.03D-02
 Coeff-Com: -0.284D-01 0.355D-01 0.780D-01-0.238D-01 0.235D+00 0.704D+00
 Coeff-En:   0.000D+00 0.000D+00 0.000D+00 0.000D+00 0.000D+00 0.100D+01
 Coeff:     -0.273D-01 0.341D-01 0.749D-01-0.229D-01 0.226D+00 0.716D+00
 Gap=     0.147 Goal=   None    Shift=    0.000
 RMSDP=4.01D-04 MaxDP=9.70D-03 DE=-4.34D-02 OVMax= 1.98D-02

 Cycle   7  Pass 0  IDiag  1:
 E= -567.325931485873     Delta-E=       -0.000959468565 Rises=F Damp=F
 DIIS: error= 2.75D-04 at cycle   7 NSaved=   7.
 NSaved= 7 IEnMin= 7 EnMin= -567.325931485873     IErMin= 7 ErrMin= 2.75D-04
 ErrMax= 2.75D-04  0.00D+00 EMaxC= 1.00D-01 BMatC= 1.16D-05 BMatP= 1.03D-03
 IDIUse=3 WtCom= 9.97D-01 WtEn= 2.75D-03
 Coeff-Com: -0.102D-01 0.543D-02 0.297D-02-0.195D-02 0.315D-01 0.276D+00
 Coeff-Com:  0.696D+00
 Coeff-En:   0.000D+00 0.000D+00 0.000D+00 0.000D+00 0.000D+00 0.000D+00
 Coeff-En:   0.100D+01
 Coeff:     -0.102D-01 0.541D-02 0.296D-02-0.195D-02 0.314D-01 0.275D+00
 Coeff:      0.697D+00
 Gap=     0.148 Goal=   None    Shift=    0.000
 RMSDP=6.54D-05 MaxDP=8.55D-04 DE=-9.59D-04 OVMax= 1.59D-03

 Cycle   8  Pass 0  IDiag  1:
 E= -567.325943835328     Delta-E=       -0.000012349455 Rises=F Damp=F
 DIIS: error= 6.01D-05 at cycle   8 NSaved=   8.
 NSaved= 8 IEnMin= 8 EnMin= -567.325943835328     IErMin= 8 ErrMin= 6.01D-05
 ErrMax= 6.01D-05  0.00D+00 EMaxC= 1.00D-01 BMatC= 2.19D-07 BMatP= 1.16D-05
 IDIUse=1 WtCom= 1.00D+00 WtEn= 0.00D+00
 Coeff-Com:  0.990D-03-0.118D-02-0.178D-02-0.713D-04-0.259D-02-0.282D-01
 Coeff-Com: -0.587D-01 0.109D+01
 Coeff:      0.990D-03-0.118D-02-0.178D-02-0.713D-04-0.259D-02-0.282D-01
 Coeff:     -0.587D-01 0.109D+01
 Gap=     0.148 Goal=   None    Shift=    0.000
 RMSDP=2.84D-05 MaxDP=5.01D-04 DE=-1.23D-05 OVMax= 1.34D-03

 Cycle   9  Pass 0  IDiag  1:
 E= -567.325944063109     Delta-E=       -0.000000227781 Rises=F Damp=F
 DIIS: error= 9.54D-05 at cycle   9 NSaved=   9.
 NSaved= 9 IEnMin= 9 EnMin= -567.325944063109     IErMin= 8 ErrMin= 6.01D-05
 ErrMax= 9.54D-05  0.00D+00 EMaxC= 1.00D-01 BMatC= 5.93D-07 BMatP= 2.19D-07
 IDIUse=1 WtCom= 1.00D+00 WtEn= 0.00D+00
 Coeff-Com:  0.708D-03-0.869D-03-0.213D-03-0.230D-03-0.296D-03-0.163D-05
 Coeff-Com: -0.325D-01 0.209D+00 0.825D+00
 Coeff:      0.708D-03-0.869D-03-0.213D-03-0.230D-03-0.296D-03-0.163D-05
 Coeff:     -0.325D-01 0.209D+00 0.825D+00
 Gap=     0.148 Goal=   None    Shift=    0.000
 RMSDP=6.60D-06 MaxDP=9.44D-05 DE=-2.28D-07 OVMax= 1.65D-04

 Initial convergence to 1.0D-05 achieved.  Increase integral accuracy.
 Cycle  10  Pass 1  IDiag  1:
 E= -567.325912709634     Delta-E=        0.000031353475 Rises=F Damp=F
 DIIS: error= 5.53D-05 at cycle   1 NSaved=   1.
 NSaved= 1 IEnMin= 1 EnMin= -567.325912709634     IErMin= 1 ErrMin= 5.53D-05
 ErrMax= 5.53D-05  0.00D+00 EMaxC= 1.00D-01 BMatC= 1.78D-07 BMatP= 1.78D-07
 IDIUse=1 WtCom= 1.00D+00 WtEn= 0.00D+00
 Coeff-Com:  0.100D+01
 Coeff:      0.100D+01
 Gap=     0.148 Goal=   None    Shift=    0.000
 RMSDP=6.60D-06 MaxDP=9.44D-05 DE= 3.14D-05 OVMax= 8.42D-04

 Cycle  11  Pass 1  IDiag  1:
 E= -567.325911284029     Delta-E=        0.000001425605 Rises=F Damp=F
 DIIS: error= 1.90D-04 at cycle   2 NSaved=   2.
 NSaved= 2 IEnMin= 1 EnMin= -567.325912709634     IErMin= 1 ErrMin= 5.53D-05
 ErrMax= 1.90D-04  0.00D+00 EMaxC= 1.00D-01 BMatC= 1.82D-06 BMatP= 1.78D-07
 IDIUse=3 WtCom= 4.21D-01 WtEn= 5.79D-01
 Coeff-Com:  0.770D+00 0.230D+00
 Coeff-En:   0.845D+00 0.155D+00
 Coeff:      0.813D+00 0.187D+00
 Gap=     0.148 Goal=   None    Shift=    0.000
 RMSDP=1.19D-05 MaxDP=2.99D-04 DE= 1.43D-06 OVMax= 5.30D-04

 Cycle  12  Pass 1  IDiag  1:
 E= -567.325912827962     Delta-E=       -0.000001543933 Rises=F Damp=F
 DIIS: error= 3.09D-05 at cycle   3 NSaved=   3.
 NSaved= 3 IEnMin= 3 EnMin= -567.325912827962     IErMin= 3 ErrMin= 3.09D-05
 ErrMax= 3.09D-05  0.00D+00 EMaxC= 1.00D-01 BMatC= 5.66D-08 BMatP= 1.78D-07
 IDIUse=1 WtCom= 1.00D+00 WtEn= 0.00D+00
 Coeff-Com:  0.848D-01-0.162D+00 0.108D+01
 Coeff:      0.848D-01-0.162D+00 0.108D+01
 Gap=     0.148 Goal=   None    Shift=    0.000
 RMSDP=3.81D-06 MaxDP=7.76D-05 DE=-1.54D-06 OVMax= 1.83D-04

 Cycle  13  Pass 1  IDiag  1:
 E= -567.325912874478     Delta-E=       -0.000000046517 Rises=F Damp=F
 DIIS: error= 7.66D-06 at cycle   4 NSaved=   4.
 NSaved= 4 IEnMin= 4 EnMin= -567.325912874478     IErMin= 4 ErrMin= 7.66D-06
 ErrMax= 7.66D-06  0.00D+00 EMaxC= 1.00D-01 BMatC= 6.28D-09 BMatP= 5.66D-08
 IDIUse=1 WtCom= 1.00D+00 WtEn= 0.00D+00
 Coeff-Com: -0.166D-01-0.138D+00 0.785D+00 0.370D+00
 Coeff:     -0.166D-01-0.138D+00 0.785D+00 0.370D+00
 Gap=     0.148 Goal=   None    Shift=    0.000
 RMSDP=1.18D-06 MaxDP=1.71D-05 DE=-4.65D-08 OVMax= 3.47D-05

 Cycle  14  Pass 1  IDiag  1:
 E= -567.325912881242     Delta-E=       -0.000000006763 Rises=F Damp=F
 DIIS: error= 9.57D-07 at cycle   5 NSaved=   5.
 NSaved= 5 IEnMin= 5 EnMin= -567.325912881242     IErMin= 5 ErrMin= 9.57D-07
 ErrMax= 9.57D-07  0.00D+00 EMaxC= 1.00D-01 BMatC= 6.90D-11 BMatP= 6.28D-09
 IDIUse=1 WtCom= 1.00D+00 WtEn= 0.00D+00
 Coeff-Com: -0.812D-02-0.356D-01 0.218D+00 0.944D-01 0.731D+00
 Coeff:     -0.812D-02-0.356D-01 0.218D+00 0.944D-01 0.731D+00
 Gap=     0.148 Goal=   None    Shift=    0.000
 RMSDP=1.25D-07 MaxDP=2.69D-06 DE=-6.76D-09 OVMax= 2.01D-06

 Cycle  15  Pass 1  IDiag  1:
 E= -567.325912881303     Delta-E=       -0.000000000062 Rises=F Damp=F
 DIIS: error= 2.20D-07 at cycle   6 NSaved=   6.
 NSaved= 6 IEnMin= 6 EnMin= -567.325912881303     IErMin= 6 ErrMin= 2.20D-07
 ErrMax= 2.20D-07  0.00D+00 EMaxC= 1.00D-01 BMatC= 7.26D-12 BMatP= 6.90D-11
 IDIUse=1 WtCom= 1.00D+00 WtEn= 0.00D+00
 Coeff-Com: -0.126D-02 0.184D-02 0.104D-02-0.966D-02 0.244D+00 0.764D+00
 Coeff:     -0.126D-02 0.184D-02 0.104D-02-0.966D-02 0.244D+00 0.764D+00
 Gap=     0.148 Goal=   None    Shift=    0.000
 RMSDP=4.52D-08 MaxDP=7.08D-07 DE=-6.17D-11 OVMax= 1.05D-06

 Cycle  16  Pass 1  IDiag  1:
 E= -567.325912881309     Delta-E=       -0.000000000006 Rises=F Damp=F
 DIIS: error= 6.64D-08 at cycle   7 NSaved=   7.
 NSaved= 7 IEnMin= 7 EnMin= -567.325912881309     IErMin= 7 ErrMin= 6.64D-08
 ErrMax= 6.64D-08  0.00D+00 EMaxC= 1.00D-01 BMatC= 4.65D-13 BMatP= 7.26D-12
 IDIUse=1 WtCom= 1.00D+00 WtEn= 0.00D+00
 Coeff-Com:  0.446D-04 0.356D-02-0.155D-01-0.114D-01 0.480D-01 0.310D+00
 Coeff-Com:  0.665D+00
 Coeff:      0.446D-04 0.356D-02-0.155D-01-0.114D-01 0.480D-01 0.310D+00
 Coeff:      0.665D+00
 Gap=     0.148 Goal=   None    Shift=    0.000
 RMSDP=1.15D-08 MaxDP=2.06D-07 DE=-6.03D-12 OVMax= 2.57D-07

 Cycle  17  Pass 1  IDiag  1:
 E= -567.325912881312     Delta-E=       -0.000000000002 Rises=F Damp=F
 DIIS: error= 2.00D-08 at cycle   8 NSaved=   8.
 NSaved= 8 IEnMin= 8 EnMin= -567.325912881312     IErMin= 8 ErrMin= 2.00D-08
 ErrMax= 2.00D-08  0.00D+00 EMaxC= 1.00D-01 BMatC= 6.07D-14 BMatP= 4.65D-13
 IDIUse=1 WtCom= 1.00D+00 WtEn= 0.00D+00
 Coeff-Com:  0.220D-03 0.792D-03-0.448D-02-0.167D-02-0.280D-01-0.449D-01
 Coeff-Com:  0.229D+00 0.849D+00
 Coeff:      0.220D-03 0.792D-03-0.448D-02-0.167D-02-0.280D-01-0.449D-01
 Coeff:      0.229D+00 0.849D+00
 Gap=     0.148 Goal=   None    Shift=    0.000
 RMSDP=5.66D-09 MaxDP=6.29D-08 DE=-2.27D-12 OVMax= 1.51D-07

 SCF Done:  E(RPBE1PBE) =  -567.325912881     A.U. after   17 cycles
            NFock= 17  Conv=0.57D-08     -V/T= 2.0027
 KE= 5.657731110008D+02 PE=-1.666119680199D+03 EE= 3.717258317052D+02
 Leave Link  502 at Thu Sep 17 12:30:13 2015, MaxMem=    33554432 cpu:         5.8
 (Enter /group/hpc-share/gaussian/2009D/g09/l601.exe)
 Copying SCF densities to generalized density rwf, IOpCl= 0 IROHF=0.

 **********************************************************************

            Population analysis using the SCF density.

 **********************************************************************

 Orbital symmetries:
       Occupied  (A') (A') (A') (A') (A') (A') (A') (A") (A') (A')
                 (A') (A') (A') (A") (A') (A') (A") (A') (A") (A')
       Virtual   (A") (A') (A') (A') (A") (A') (A') (A') (A") (A')
                 (A') (A") (A') (A") (A') (A') (A") (A') (A') (A')
                 (A") (A') (A") (A') (A') (A') (A") (A') (A') (A')
                 (A') (A") (A') (A") (A') (A") (A') (A") (A') (A')
                 (A') (A") (A') (A") (A') (A') (A") (A') (A") (A')
                 (A')
 The electronic state is 1-A'.
 Alpha  occ. eigenvalues --  -89.06464 -19.24175 -14.51291 -10.26376  -8.06956
 Alpha  occ. eigenvalues --   -6.01058  -6.00742  -6.00294  -1.07333  -0.91445
 Alpha  occ. eigenvalues --   -0.72908  -0.63363  -0.50509  -0.49731  -0.46679
 Alpha  occ. eigenvalues --   -0.42187  -0.40806  -0.36230  -0.28490  -0.26497
 Alpha virt. eigenvalues --   -0.11681  -0.01517   0.07076   0.09757   0.12527
 Alpha virt. eigenvalues --    0.14643   0.18656   0.33693   0.38486   0.41162
 Alpha virt. eigenvalues --    0.48175   0.53679   0.58251   0.63422   0.63602
 Alpha virt. eigenvalues --    0.67393   0.68491   0.68895   0.70090   0.72704
 Alpha virt. eigenvalues --    0.74090   0.83045   0.83880   0.89207   0.94361
 Alpha virt. eigenvalues --    0.97271   1.01555   1.03456   1.11196   1.23549
 Alpha virt. eigenvalues --    1.37391   1.70438   1.78194   1.94742   2.01233
 Alpha virt. eigenvalues --    2.12291   2.12662   2.16713   2.17406   2.30456
 Alpha virt. eigenvalues --    2.58132   2.65415   2.67055   2.94354   2.97652
 Alpha virt. eigenvalues --    3.57756   4.60925   4.65146   4.65519   4.81511
 Alpha virt. eigenvalues --    4.92299
          Condensed to atoms (all electrons):
               1          2          3          4          5          6
     1  O    8.138869   0.210108  -0.084024   0.011082  -0.000273   0.000498
     2  N    0.210108   6.875187   0.149647  -0.122650   0.013822  -0.003758
     3  S   -0.084024   0.149647  15.497224   0.269346  -0.031607  -0.032545
     4  C    0.011082  -0.122650   0.269346   5.105427   0.348052   0.388788
     5  H   -0.000273   0.013822  -0.031607   0.348052   0.550244  -0.015670
     6  H    0.000498  -0.003758  -0.032545   0.388788  -0.015670   0.493308
     7  H    0.000498  -0.003758  -0.032545   0.388788  -0.015670  -0.014915
               7
     1  O    0.000498
     2  N   -0.003758
     3  S   -0.032545
     4  C    0.388788
     5  H   -0.015670
     6  H   -0.014915
     7  H    0.493308
 Mulliken charges:
               1
     1  O   -0.276759
     2  N   -0.118599
     3  S    0.264503
     4  C   -0.388834
     5  H    0.151101
     6  H    0.184294
     7  H    0.184294
 Sum of Mulliken charges =   0.00000
 Mulliken charges with hydrogens summed into heavy atoms:
               1
     1  O   -0.276759
     2  N   -0.118599
     3  S    0.264503
     4  C    0.130855
 Electronic spatial extent (au):  <R**2>=            337.3360
 Charge=              0.0000 electrons
 Dipole moment (field-independent basis, Debye):
    X=              2.9843    Y=              2.0962    Z=              0.0000  Tot=              3.6470
 Quadrupole moment (field-independent basis, Debye-Ang):
   XX=            -31.8409   YY=            -31.8159   ZZ=            -29.5718
   XY=             -1.8453   XZ=              0.0000   YZ=              0.0000
 Traceless Quadrupole moment (field-independent basis, Debye-Ang):
   XX=             -0.7647   YY=             -0.7397   ZZ=              1.5044
   XY=             -1.8453   XZ=              0.0000   YZ=              0.0000
 Octapole moment (field-independent basis, Debye-Ang**2):
  XXX=              2.6584  YYY=              3.1589  ZZZ=              0.0000  XYY=              2.5698
  XXY=              4.0608  XXZ=              0.0000  XZZ=             -1.2674  YZZ=             -2.4601
  YYZ=              0.0000  XYZ=              0.0000
 Hexadecapole moment (field-independent basis, Debye-Ang**3):
 XXXX=           -254.4343 YYYY=           -141.4914 ZZZZ=            -35.2970 XXXY=            -41.2743
 XXXZ=              0.0000 YYYX=            -37.5799 YYYZ=              0.0000 ZZZX=              0.0000
 ZZZY=              0.0000 XXYY=            -66.4567 XXZZ=            -45.1475 YYZZ=            -29.3006
 XXYZ=              0.0000 YYXZ=              0.0000 ZZXY=            -12.6700
 N-N= 1.612948246114D+02 E-N=-1.666119678164D+03  KE= 5.657731110008D+02
 Symmetry A'   KE= 5.210266589180D+02
 Symmetry A"   KE= 4.474645208284D+01
 No NMR shielding tensors so no spin-rotation constants.
 Leave Link  601 at Thu Sep 17 12:30:13 2015, MaxMem=    33554432 cpu:         1.5
 (Enter /group/hpc-share/gaussian/2009D/g09/l701.exe)
 Compute integral first derivatives.
 ... and contract with generalized density number  0.
 Leave Link  701 at Thu Sep 17 12:30:13 2015, MaxMem=    33554432 cpu:         1.1
 (Enter /group/hpc-share/gaussian/2009D/g09/l702.exe)
 L702 exits ... SP integral derivatives will be done elsewhere.
 Leave Link  702 at Thu Sep 17 12:30:13 2015, MaxMem=    33554432 cpu:         0.1
 (Enter /group/hpc-share/gaussian/2009D/g09/l703.exe)
 Compute integral first derivatives, UseDBF=F ICtDFT=           0.
 Integral derivatives from FoFJK, PRISM(SPDF).
 Calling FoFJK, ICntrl=      2127 FMM=F ISym2X=1 I1Cent= 0 IOpClX= 0 NMat=1 NMatS=1 NMatT=0.
 FoFJK:  IHMeth= 1 ICntrl=    2127 DoSepK=F KAlg= 0 I1Cent=   0 FoldK=F
 IRaf=         0 NMat=   1 IRICut=       1 DoRegI=T DoRafI=F ISym2E= 1.
 FoFCou: FMM=F IPFlag=           0 FMFlag=      100000 FMFlg1=         800
         NFxFlg=           0 DoJE=F BraDBF=F KetDBF=F FulRan=T
         wScrn=  0.000000 ICntrl=    2127 IOpCl=  0 I1Cent=           0 NGrid=           0
         NMat0=    1 NMatS0=      1 NMatT0=    0 NMatD0=    1 NMtDS0=    0 NMtDT0=    0
 Petite list used in FoFCou.
 Leave Link  703 at Thu Sep 17 12:30:14 2015, MaxMem=    33554432 cpu:         2.6
 (Enter /group/hpc-share/gaussian/2009D/g09/l716.exe)
 Dipole        = 1.17413182D+00 8.24726774D-01 0.00000000D+00
 ***** Axes restored to original set *****
 -------------------------------------------------------------------
 Center     Atomic                   Forces (Hartrees/Bohr)
 Number     Number              X              Y              Z
 -------------------------------------------------------------------
      1        8          -0.014196833    0.000000000    0.141219586
      2        7          -0.008227756    0.000000000   -0.236754946
      3       16           0.009649825    0.000000000   -0.009146695
      4        6           0.012902355    0.000000000    0.079014867
      5        1           0.003445847    0.000000000    0.014347208
      6        1          -0.001786719    0.004809124    0.005659990
      7        1          -0.001786719   -0.004809124    0.005659990
 -------------------------------------------------------------------
 Cartesian Forces:  Max     0.236754946 RMS     0.062938424
 Leave Link  716 at Thu Sep 17 12:30:14 2015, MaxMem=    33554432 cpu:         0.1
 (Enter /group/hpc-share/gaussian/2009D/g09/l103.exe)

 GradGradGradGradGradGradGradGradGradGradGradGradGradGradGradGradGradGrad
 Berny optimization.
 FormGI is forming the generalized inverse of G from B-inverse, IUseBI=4.
 Internal  Forces:  Max     0.216010098 RMS     0.065795124
 Search for a local minimum.
 Step number   1 out of a maximum of   28
 All quantities printed in internal units (Hartrees-Bohrs-Radians)
 RMS Force = .65795D-01 SwitMx=.10000D-02 MixMth= 1
 Mixed Optimization -- RFO/linear search
 Second derivative matrix not updated -- first step.
 The second derivative matrix:
                          R1        R2        R3        R4        R5
           R1           0.45621
           R2           0.00000   0.46672
           R3           0.00000   0.00000   0.34713
           R4           0.00000   0.00000   0.00000   0.34928
           R5           0.00000   0.00000   0.00000   0.00000   0.34928
           R6           0.00000   0.00000   0.00000   0.00000   0.00000
           A1           0.00000   0.00000   0.00000   0.00000   0.00000
           A2           0.00000   0.00000   0.00000   0.00000   0.00000
           A3           0.00000   0.00000   0.00000   0.00000   0.00000
           A4           0.00000   0.00000   0.00000   0.00000   0.00000
           A5           0.00000   0.00000   0.00000   0.00000   0.00000
           A6           0.00000   0.00000   0.00000   0.00000   0.00000
           A7           0.00000   0.00000   0.00000   0.00000   0.00000
           A8           0.00000   0.00000   0.00000   0.00000   0.00000
           D1           0.00000   0.00000   0.00000   0.00000   0.00000
           D2           0.00000   0.00000   0.00000   0.00000   0.00000
           D3           0.00000   0.00000   0.00000   0.00000   0.00000
           D4           0.00000   0.00000   0.00000   0.00000   0.00000
                          R6        A1        A2        A3        A4
           R6           0.34928
           A1           0.00000   0.25000
           A2           0.00000   0.00000   0.25000
           A3           0.00000   0.00000   0.00000   0.16000
           A4           0.00000   0.00000   0.00000   0.00000   0.16000
           A5           0.00000   0.00000   0.00000   0.00000   0.00000
           A6           0.00000   0.00000   0.00000   0.00000   0.00000
           A7           0.00000   0.00000   0.00000   0.00000   0.00000
           A8           0.00000   0.00000   0.00000   0.00000   0.00000
           D1           0.00000   0.00000   0.00000   0.00000   0.00000
           D2           0.00000   0.00000   0.00000   0.00000   0.00000
           D3           0.00000   0.00000   0.00000   0.00000   0.00000
           D4           0.00000   0.00000   0.00000   0.00000   0.00000
                          A5        A6        A7        A8        D1
           A5           0.16000
           A6           0.00000   0.16000
           A7           0.00000   0.00000   0.16000
           A8           0.00000   0.00000   0.00000   0.16000
           D1           0.00000   0.00000   0.00000   0.00000   0.02288
           D2           0.00000   0.00000   0.00000   0.00000   0.00000
           D3           0.00000   0.00000   0.00000   0.00000   0.00000
           D4           0.00000   0.00000   0.00000   0.00000   0.00000
                          D2        D3        D4
           D2           0.01561
           D3           0.00000   0.01561
           D4           0.00000   0.00000   0.01561
 ITU=  0
     Eigenvalues ---    0.01561   0.02288   0.10446   0.10446   0.16000
     Eigenvalues ---    0.16000   0.16000   0.25000   0.25000   0.34713
     Eigenvalues ---    0.34928   0.34928   0.34928   0.45621   0.46672
 RFO step:  Lambda=-1.66079284D-01 EMin= 1.56082885D-02
 Linear search not attempted -- first point.
 Maximum step size (   0.300) exceeded in Quadratic search.
    -- Step size scaled by   0.497
 Iteration  1 RMS(Cart)=  0.16509346 RMS(Int)=  0.01635753
 Iteration  2 RMS(Cart)=  0.04540698 RMS(Int)=  0.00066942
 Iteration  3 RMS(Cart)=  0.00106727 RMS(Int)=  0.00002092
 Iteration  4 RMS(Cart)=  0.00000012 RMS(Int)=  0.00002092
 ITry= 1 IFail=0 DXMaxC= 4.98D-01 DCOld= 1.00D+10 DXMaxT= 3.00D-01 DXLimC= 3.00D+00 Rises=F
 ClnCor:  largest displacement from symmetrization is 4.32D-10 for atom     2.
 Variable       Old X    -DE/DX   Delta X   Delta X   Delta X     New X
                                 (Linear)    (Quad)   (Total)
    R1        2.64562  -0.14122   0.00000  -0.11282  -0.11282   2.53280
    R2        3.07080   0.05300   0.00000   0.04164   0.04164   3.11244
    R3        3.23143   0.08170   0.00000   0.07914   0.07914   3.31057
    R4        2.05791   0.01340   0.00000   0.01293   0.01293   2.07084
    R5        2.05791   0.00513   0.00000   0.00494   0.00494   2.06286
    R6        2.05791   0.00513   0.00000   0.00494   0.00494   2.06286
    A1        1.91063   0.03759   0.00000   0.04492   0.04492   1.95555
    A2        1.34770   0.21601   0.00000   0.25809   0.25809   1.60579
    A3        1.91063   0.00564   0.00000   0.00813   0.00811   1.91874
    A4        1.91063   0.00475   0.00000   0.00748   0.00745   1.91808
    A5        1.91063   0.00475   0.00000   0.00748   0.00745   1.91808
    A6        1.91063  -0.00706   0.00000  -0.01123  -0.01126   1.89938
    A7        1.91063  -0.00706   0.00000  -0.01123  -0.01126   1.89938
    A8        1.91063  -0.00103   0.00000  -0.00063  -0.00068   1.90995
    D1        3.14159   0.00000   0.00000   0.00000   0.00000   3.14159
    D2        3.14159   0.00000   0.00000   0.00000   0.00000   3.14159
    D3       -1.04720  -0.00228   0.00000  -0.00420  -0.00422  -1.05141
    D4        1.04720   0.00228   0.00000   0.00420   0.00422   1.05141
         Item               Value     Threshold  Converged?
 Maximum Force            0.216010     0.000450     NO 
 RMS     Force            0.065795     0.000300     NO 
 Maximum Displacement     0.498400     0.001800     NO 
 RMS     Displacement     0.207809     0.001200     NO 
 Predicted change in Energy=-6.951734D-02
 Lowest energy point so far.  Saving SCF results.
 GradGradGradGradGradGradGradGradGradGradGradGradGradGradGradGradGradGrad

 Leave Link  103 at Thu Sep 17 12:30:14 2015, MaxMem=    33554432 cpu:         0.4
 (Enter /group/hpc-share/gaussian/2009D/g09/l202.exe)
                          Input orientation:                          
 ---------------------------------------------------------------------
 Center     Atomic      Atomic             Coordinates (Angstroms)
 Number     Number       Type             X           Y           Z
 ---------------------------------------------------------------------
      1          8           0        0.091599    0.000000   -0.196075
      2          7           0       -0.054304    0.000000    1.136258
      3         16           0        1.395951    0.000000    1.916954
      4          6           0        0.620034    0.000000    3.487633
      5          1           0        1.378164    0.000000    4.278901
      6          1           0       -0.001292    0.891086    3.595082
      7          1           0       -0.001292   -0.891086    3.595082
 ---------------------------------------------------------------------
                    Distance matrix (angstroms):
                    1          2          3          4          5
     1  O    0.000000
     2  N    1.340298   0.000000
     3  S    2.483189   1.647035   0.000000
     4  C    3.721418   2.446160   1.751879   0.000000
     5  H    4.656250   3.453718   2.362014   1.095840   0.000000
     6  H    3.895580   2.615848   2.358482   1.091617   1.778916
     7  H    3.895580   2.615848   2.358482   1.091617   1.778916
                    6          7
     6  H    0.000000
     7  H    1.782172   0.000000
 Stoichiometry    CH3NOS
 Framework group  CS[SG(CHNOS),X(H2)]
 Deg. of freedom    10
 Full point group                 CS      NOp   2
 RotChk:  IX=0 Diff= 1.19D-01
 Largest Abelian subgroup         CS      NOp   2
 Largest concise Abelian subgroup CS      NOp   2
                         Standard orientation:                         
 ---------------------------------------------------------------------
 Center     Atomic      Atomic             Coordinates (Angstroms)
 Number     Number       Type             X           Y           Z
 ---------------------------------------------------------------------
      1          8           0       -1.720848   -1.065970    0.000000
      2          7           0       -0.394239   -0.874900    0.000000
      3         16           0        0.000000    0.724256    0.000000
      4          6           0        1.714582    0.364686    0.000000
      5          1           0        2.291713    1.296235    0.000000
      6          1           0        1.973628   -0.210194    0.891086
      7          1           0        1.973628   -0.210194   -0.891086
 ---------------------------------------------------------------------
 Rotational constants (GHZ):     20.3486500      4.0473891      3.4496756
 Leave Link  202 at Thu Sep 17 12:30:14 2015, MaxMem=    33554432 cpu:         0.1
 (Enter /group/hpc-share/gaussian/2009D/g09/l301.exe)
 Basis read from rwf:  (5D, 7F)
 No pseudopotential information found on rwf file.
 There are    55 symmetry adapted cartesian basis functions of A'  symmetry.
 There are    21 symmetry adapted cartesian basis functions of A"  symmetry.
 There are    50 symmetry adapted basis functions of A'  symmetry.
 There are    21 symmetry adapted basis functions of A"  symmetry.
    71 basis functions,   130 primitive gaussians,    76 cartesian basis functions
    20 alpha electrons       20 beta electrons
       nuclear repulsion energy       157.6394106325 Hartrees.
 IExCor= 1009 DFT=T Ex+Corr=PBE1PBE ExCW=0 ScaHFX=  0.250000
 ScaDFX=  0.750000  0.750000  1.000000  1.000000 ScalE2=  1.000000  1.000000
 IRadAn=      0 IRanWt=     -1 IRanGd=            0 ICorTp=0 IEmpDi=  4
 NAtoms=    7 NActive=    7 NUniq=    6 SFac= 1.36D+00 NAtFMM=   60 NAOKFM=F Big=F
 Integral buffers will be    131072 words long.
 Raffenetti 2 integral format.
 Two-electron integral symmetry is turned on.
 No density basis found on file   724.
 Leave Link  301 at Thu Sep 17 12:30:14 2015, MaxMem=    33554432 cpu:         0.3
 (Enter /group/hpc-share/gaussian/2009D/g09/l302.exe)
 NPDir=0 NMtPBC=     1 NCelOv=     1 NCel=       1 NClECP=     1 NCelD=      1
         NCelK=      1 NCelE2=     1 NClLst=     1 CellRange=     0.0.
 One-electron integrals computed using PRISM.
 One-electron integral symmetry used in STVInt
 NBasis=    71 RedAO= T EigKep=  9.49D-03  NBF=    50    21
 NBsUse=    71 1.00D-06 EigRej= -1.00D+00 NBFU=    50    21
 Precomputing XC quadrature grid using
 IXCGrd= 4 IRadAn=           0 IRanWt=          -1 IRanGd=           0 AccXCQ= 0.00D+00.
 Generated NRdTot=       0 NPtTot=           0 NUsed=           0 NTot=          32
 NSgBfM=    76    76    76    76    76 MxSgAt=     7 MxSgA2=     7.
 Leave Link  302 at Thu Sep 17 12:30:15 2015, MaxMem=    33554432 cpu:         1.5
 (Enter /group/hpc-share/gaussian/2009D/g09/l303.exe)
 DipDrv:  MaxL=1.
 Leave Link  303 at Thu Sep 17 12:30:15 2015, MaxMem=    33554432 cpu:         0.2
 (Enter /group/hpc-share/gaussian/2009D/g09/l401.exe)
 Initial guess from the checkpoint file:  "trans-mesno.chk"
 B after Tr=     0.000000    0.000000    0.000000
         Rot=    0.999765    0.000000    0.000000   -0.021693 Ang=  -2.49 deg.
 Guess basis will be translated and rotated to current coordinates.
 JPrj=2 DoOrth=T DoCkMO=T.
 Initial guess orbital symmetries:
       Occupied  (A') (A') (A') (A') (A') (A') (A') (A") (A') (A')
                 (A') (A') (A') (A") (A') (A') (A") (A') (A") (A')
       Virtual   (A') (A') (A') (A') (A') (A') (A') (A') (A') (A')
                 (A') (A') (A') (A') (A') (A') (A') (A') (A') (A')
                 (A') (A') (A') (A') (A') (A') (A') (A') (A') (A')
                 (A') (A') (A') (A') (A") (A") (A") (A") (A") (A")
                 (A") (A") (A") (A") (A") (A") (A") (A") (A") (A")
                 (A")
 The electronic state of the initial guess is 1-A'.
 Generating alternative initial guess.
 ExpMin= 1.22D-01 ExpMax= 9.18D+03 ExpMxC= 1.38D+03 IAcc=1 IRadAn=         1 AccDes= 0.00D+00
 Harris functional with IExCor= 1009 and IRadAn=       1 diagonalized for initial guess.
 HarFok:  IExCor= 1009 AccDes= 0.00D+00 IRadAn=         1 IDoV= 1 UseB2=F ITyADJ=14
 ICtDFT=  3500011 ScaDFX=  1.000000  1.000000  1.000000  1.000000
 FoFCou: FMM=F IPFlag=           0 FMFlag=      100000 FMFlg1=           0
         NFxFlg=           0 DoJE=T BraDBF=F KetDBF=T FulRan=T
         wScrn=  0.000000 ICntrl=     500 IOpCl=  0 I1Cent=   200000004 NGrid=           0
         NMat0=    1 NMatS0=      1 NMatT0=    0 NMatD0=    1 NMtDS0=    0 NMtDT0=    0
 Petite list used in FoFCou.
 Harris En= -567.383345241891    
 Leave Link  401 at Thu Sep 17 12:30:15 2015, MaxMem=    33554432 cpu:         1.6
 (Enter /group/hpc-share/gaussian/2009D/g09/l502.exe)
 Closed shell SCF:
 Using DIIS extrapolation, IDIIS=  1040.
 Integral symmetry usage will be decided dynamically.
 Keep R1 ints in memory in symmetry-blocked form, NReq=4997642.
 IVT=       37168 IEndB=       37168 NGot=    33554432 MDV=    31824708
 LenX=    31824708 LenY=    31818491
 Requested convergence on RMS density matrix=1.00D-08 within 128 cycles.
 Requested convergence on MAX density matrix=1.00D-06.
 Requested convergence on             energy=1.00D-06.
 No special actions if energy rises.
 FoFCou: FMM=F IPFlag=           0 FMFlag=           0 FMFlg1=           0
         NFxFlg=           0 DoJE=F BraDBF=F KetDBF=F FulRan=T
         wScrn=  0.000000 ICntrl=     600 IOpCl=  0 I1Cent=           0 NGrid=           0
         NMat0=    1 NMatS0=   2556 NMatT0=    0 NMatD0=    1 NMtDS0=    0 NMtDT0=    0
 Petite list used in FoFCou.
 Integral accuracy reduced to 1.0D-05 until final iterations.

 Cycle   1  Pass 0  IDiag  1:
 E= -567.356487950920    
 DIIS: error= 8.35D-03 at cycle   1 NSaved=   1.
 NSaved= 1 IEnMin= 1 EnMin= -567.356487950920     IErMin= 1 ErrMin= 8.35D-03
 ErrMax= 8.35D-03  0.00D+00 EMaxC= 1.00D-01 BMatC= 1.28D-02 BMatP= 1.28D-02
 IDIUse=3 WtCom= 9.16D-01 WtEn= 8.35D-02
 Coeff-Com:  0.100D+01
 Coeff-En:   0.100D+01
 Coeff:      0.100D+01
 Gap=     0.589 Goal=   None    Shift=    0.000
 GapD=    0.589 DampG=2.000 DampE=1.000 DampFc=2.0000 IDamp=-1.
 RMSDP=2.59D-03 MaxDP=2.11D-02              OVMax= 4.53D-02

 Cycle   2  Pass 0  IDiag  1:
 E= -567.376298161587     Delta-E=       -0.019810210667 Rises=F Damp=F
 DIIS: error= 5.74D-03 at cycle   2 NSaved=   2.
 NSaved= 2 IEnMin= 2 EnMin= -567.376298161587     IErMin= 2 ErrMin= 5.74D-03
 ErrMax= 5.74D-03  0.00D+00 EMaxC= 1.00D-01 BMatC= 2.05D-03 BMatP= 1.28D-02
 IDIUse=3 WtCom= 9.43D-01 WtEn= 5.74D-02
 Coeff-Com:  0.132D+00 0.868D+00
 Coeff-En:   0.000D+00 0.100D+01
 Coeff:      0.125D+00 0.875D+00
 Gap=     0.147 Goal=   None    Shift=    0.000
 RMSDP=1.57D-03 MaxDP=3.76D-02 DE=-1.98D-02 OVMax= 5.91D-02

 Cycle   3  Pass 0  IDiag  1:
 E= -567.368203912118     Delta-E=        0.008094249469 Rises=F Damp=F
 DIIS: error= 1.52D-02 at cycle   3 NSaved=   3.
 NSaved= 3 IEnMin= 2 EnMin= -567.376298161587     IErMin= 2 ErrMin= 5.74D-03
 ErrMax= 1.52D-02  0.00D+00 EMaxC= 1.00D-01 BMatC= 1.18D-02 BMatP= 2.05D-03
 IDIUse=2 WtCom= 0.00D+00 WtEn= 1.00D+00
 Coeff-En:   0.000D+00 0.784D+00 0.216D+00
 Coeff:      0.000D+00 0.784D+00 0.216D+00
 Gap=     0.153 Goal=   None    Shift=    0.000
 RMSDP=8.45D-04 MaxDP=2.05D-02 DE= 8.09D-03 OVMax= 3.38D-02

 Cycle   4  Pass 0  IDiag  1:
 E= -567.377367306130     Delta-E=       -0.009163394012 Rises=F Damp=F
 DIIS: error= 3.88D-03 at cycle   4 NSaved=   4.
 NSaved= 4 IEnMin= 4 EnMin= -567.377367306130     IErMin= 4 ErrMin= 3.88D-03
 ErrMax= 3.88D-03  0.00D+00 EMaxC= 1.00D-01 BMatC= 8.32D-04 BMatP= 2.05D-03
 IDIUse=3 WtCom= 9.61D-01 WtEn= 3.88D-02
 Coeff-Com: -0.204D-01 0.241D+00-0.144D+00 0.923D+00
 Coeff-En:   0.000D+00 0.328D+00 0.000D+00 0.672D+00
 Coeff:     -0.196D-01 0.244D+00-0.138D+00 0.914D+00
 Gap=     0.155 Goal=   None    Shift=    0.000
 RMSDP=3.04D-04 MaxDP=7.51D-03 DE=-9.16D-03 OVMax= 1.10D-02

 Cycle   5  Pass 0  IDiag  1:
 E= -567.378045664585     Delta-E=       -0.000678358454 Rises=F Damp=F
 DIIS: error= 1.79D-04 at cycle   5 NSaved=   5.
 NSaved= 5 IEnMin= 5 EnMin= -567.378045664585     IErMin= 5 ErrMin= 1.79D-04
 ErrMax= 1.79D-04  0.00D+00 EMaxC= 1.00D-01 BMatC= 2.37D-06 BMatP= 8.32D-04
 IDIUse=3 WtCom= 9.98D-01 WtEn= 1.79D-03
 Coeff-Com: -0.608D-02 0.593D-01-0.476D-01 0.299D+00 0.695D+00
 Coeff-En:   0.000D+00 0.000D+00 0.000D+00 0.000D+00 0.100D+01
 Coeff:     -0.607D-02 0.592D-01-0.475D-01 0.298D+00 0.696D+00
 Gap=     0.154 Goal=   None    Shift=    0.000
 RMSDP=2.99D-05 MaxDP=3.96D-04 DE=-6.78D-04 OVMax= 6.62D-04

 Cycle   6  Pass 0  IDiag  1:
 E= -567.378046737371     Delta-E=       -0.000001072786 Rises=F Damp=F
 DIIS: error= 8.96D-05 at cycle   6 NSaved=   6.
 NSaved= 6 IEnMin= 6 EnMin= -567.378046737371     IErMin= 6 ErrMin= 8.96D-05
 ErrMax= 8.96D-05  0.00D+00 EMaxC= 1.00D-01 BMatC= 9.98D-07 BMatP= 2.37D-06
 IDIUse=1 WtCom= 1.00D+00 WtEn= 0.00D+00
 Coeff-Com: -0.336D-03-0.408D-02-0.784D-02 0.440D-01 0.468D+00 0.500D+00
 Coeff:     -0.336D-03-0.408D-02-0.784D-02 0.440D-01 0.468D+00 0.500D+00
 Gap=     0.154 Goal=   None    Shift=    0.000
 RMSDP=1.82D-05 MaxDP=2.55D-04 DE=-1.07D-06 OVMax= 5.72D-04

 Cycle   7  Pass 0  IDiag  1:
 E= -567.378047760350     Delta-E=       -0.000001022979 Rises=F Damp=F
 DIIS: error= 2.16D-05 at cycle   7 NSaved=   7.
 NSaved= 7 IEnMin= 7 EnMin= -567.378047760350     IErMin= 7 ErrMin= 2.16D-05
 ErrMax= 2.16D-05  0.00D+00 EMaxC= 1.00D-01 BMatC= 5.33D-08 BMatP= 9.98D-07
 IDIUse=1 WtCom= 1.00D+00 WtEn= 0.00D+00
 Coeff-Com:  0.645D-04-0.484D-02-0.120D-02 0.690D-02 0.218D+00 0.292D+00
 Coeff-Com:  0.489D+00
 Coeff:      0.645D-04-0.484D-02-0.120D-02 0.690D-02 0.218D+00 0.292D+00
 Coeff:      0.489D+00
 Gap=     0.154 Goal=   None    Shift=    0.000
 RMSDP=3.69D-06 MaxDP=5.78D-05 DE=-1.02D-06 OVMax= 1.17D-04

 Initial convergence to 1.0D-05 achieved.  Increase integral accuracy.
 Cycle   8  Pass 1  IDiag  1:
 E= -567.378020434664     Delta-E=        0.000027325686 Rises=F Damp=F
 DIIS: error= 1.47D-05 at cycle   1 NSaved=   1.
 NSaved= 1 IEnMin= 1 EnMin= -567.378020434664     IErMin= 1 ErrMin= 1.47D-05
 ErrMax= 1.47D-05  0.00D+00 EMaxC= 1.00D-01 BMatC= 2.41D-08 BMatP= 2.41D-08
 IDIUse=1 WtCom= 1.00D+00 WtEn= 0.00D+00
 Coeff-Com:  0.100D+01
 Coeff:      0.100D+01
 Gap=     0.154 Goal=   None    Shift=    0.000
 RMSDP=3.69D-06 MaxDP=5.78D-05 DE= 2.73D-05 OVMax= 6.66D-05

 Cycle   9  Pass 1  IDiag  1:
 E= -567.378020455923     Delta-E=       -0.000000021259 Rises=F Damp=F
 DIIS: error= 5.93D-06 at cycle   2 NSaved=   2.
 NSaved= 2 IEnMin= 2 EnMin= -567.378020455923     IErMin= 2 ErrMin= 5.93D-06
 ErrMax= 5.93D-06  0.00D+00 EMaxC= 1.00D-01 BMatC= 4.75D-09 BMatP= 2.41D-08
 IDIUse=1 WtCom= 1.00D+00 WtEn= 0.00D+00
 Coeff-Com:  0.210D+00 0.790D+00
 Coeff:      0.210D+00 0.790D+00
 Gap=     0.154 Goal=   None    Shift=    0.000
 RMSDP=1.99D-06 MaxDP=3.61D-05 DE=-2.13D-08 OVMax= 6.97D-05

 Cycle  10  Pass 1  IDiag  1:
 E= -567.378020452070     Delta-E=        0.000000003853 Rises=F Damp=F
 DIIS: error= 1.08D-05 at cycle   3 NSaved=   3.
 NSaved= 3 IEnMin= 2 EnMin= -567.378020455923     IErMin= 2 ErrMin= 5.93D-06
 ErrMax= 1.08D-05  0.00D+00 EMaxC= 1.00D-01 BMatC= 9.45D-09 BMatP= 4.75D-09
 IDIUse=1 WtCom= 1.00D+00 WtEn= 0.00D+00
 Coeff-Com:  0.904D-02 0.589D+00 0.402D+00
 Coeff:      0.904D-02 0.589D+00 0.402D+00
 Gap=     0.154 Goal=   None    Shift=    0.000
 RMSDP=1.47D-06 MaxDP=3.27D-05 DE= 3.85D-09 OVMax= 5.72D-05

 Cycle  11  Pass 1  IDiag  1:
 E= -567.378020459202     Delta-E=       -0.000000007132 Rises=F Damp=F
 DIIS: error= 4.97D-06 at cycle   4 NSaved=   4.
 NSaved= 4 IEnMin= 4 EnMin= -567.378020459202     IErMin= 4 ErrMin= 4.97D-06
 ErrMax= 4.97D-06  0.00D+00 EMaxC= 1.00D-01 BMatC= 1.66D-09 BMatP= 4.75D-09
 IDIUse=1 WtCom= 1.00D+00 WtEn= 0.00D+00
 Coeff-Com: -0.173D-01 0.331D+00 0.307D+00 0.379D+00
 Coeff:     -0.173D-01 0.331D+00 0.307D+00 0.379D+00
 Gap=     0.154 Goal=   None    Shift=    0.000
 RMSDP=4.81D-07 MaxDP=1.00D-05 DE=-7.13D-09 OVMax= 1.66D-05

 Cycle  12  Pass 1  IDiag  1:
 E= -567.378020460649     Delta-E=       -0.000000001448 Rises=F Damp=F
 DIIS: error= 4.22D-07 at cycle   5 NSaved=   5.
 NSaved= 5 IEnMin= 5 EnMin= -567.378020460649     IErMin= 5 ErrMin= 4.22D-07
 ErrMax= 4.22D-07  0.00D+00 EMaxC= 1.00D-01 BMatC= 1.45D-11 BMatP= 1.66D-09
 IDIUse=1 WtCom= 1.00D+00 WtEn= 0.00D+00
 Coeff-Com: -0.750D-02 0.113D+00 0.111D+00 0.159D+00 0.624D+00
 Coeff:     -0.750D-02 0.113D+00 0.111D+00 0.159D+00 0.624D+00
 Gap=     0.154 Goal=   None    Shift=    0.000
 RMSDP=7.88D-08 MaxDP=1.28D-06 DE=-1.45D-09 OVMax= 2.67D-06

 Cycle  13  Pass 1  IDiag  1:
 E= -567.378020460659     Delta-E=       -0.000000000010 Rises=F Damp=F
 DIIS: error= 2.13D-07 at cycle   6 NSaved=   6.
 NSaved= 6 IEnMin= 6 EnMin= -567.378020460659     IErMin= 6 ErrMin= 2.13D-07
 ErrMax= 2.13D-07  0.00D+00 EMaxC= 1.00D-01 BMatC= 5.75D-12 BMatP= 1.45D-11
 IDIUse=1 WtCom= 1.00D+00 WtEn= 0.00D+00
 Coeff-Com: -0.234D-02 0.216D-01 0.217D-01 0.464D-01 0.389D+00 0.523D+00
 Coeff:     -0.234D-02 0.216D-01 0.217D-01 0.464D-01 0.389D+00 0.523D+00
 Gap=     0.154 Goal=   None    Shift=    0.000
 RMSDP=5.12D-08 MaxDP=8.95D-07 DE=-9.78D-12 OVMax= 1.32D-06

 Cycle  14  Pass 1  IDiag  1:
 E= -567.378020460666     Delta-E=       -0.000000000007 Rises=F Damp=F
 DIIS: error= 9.17D-08 at cycle   7 NSaved=   7.
 NSaved= 7 IEnMin= 7 EnMin= -567.378020460666     IErMin= 7 ErrMin= 9.17D-08
 ErrMax= 9.17D-08  0.00D+00 EMaxC= 1.00D-01 BMatC= 6.91D-13 BMatP= 5.75D-12
 IDIUse=1 WtCom= 1.00D+00 WtEn= 0.00D+00
 Coeff-Com:  0.258D-03-0.108D-01-0.121D-01-0.425D-02 0.831D-01 0.283D+00
 Coeff-Com:  0.661D+00
 Coeff:      0.258D-03-0.108D-01-0.121D-01-0.425D-02 0.831D-01 0.283D+00
 Coeff:      0.661D+00
 Gap=     0.154 Goal=   None    Shift=    0.000
 RMSDP=1.40D-08 MaxDP=2.29D-07 DE=-6.93D-12 OVMax= 5.12D-07

 Cycle  15  Pass 1  IDiag  1:
 E= -567.378020460665     Delta-E=        0.000000000001 Rises=F Damp=F
 DIIS: error= 2.38D-08 at cycle   8 NSaved=   8.
 NSaved= 8 IEnMin= 7 EnMin= -567.378020460666     IErMin= 8 ErrMin= 2.38D-08
 ErrMax= 2.38D-08  0.00D+00 EMaxC= 1.00D-01 BMatC= 4.41D-14 BMatP= 6.91D-13
 IDIUse=1 WtCom= 1.00D+00 WtEn= 0.00D+00
 Coeff-Com:  0.247D-03-0.419D-02-0.529D-02-0.279D-02-0.165D-01 0.294D-02
 Coeff-Com:  0.121D+00 0.905D+00
 Coeff:      0.247D-03-0.419D-02-0.529D-02-0.279D-02-0.165D-01 0.294D-02
 Coeff:      0.121D+00 0.905D+00
 Gap=     0.154 Goal=   None    Shift=    0.000
 RMSDP=4.88D-09 MaxDP=9.10D-08 DE= 1.02D-12 OVMax= 1.51D-07

 SCF Done:  E(RPBE1PBE) =  -567.378020461     A.U. after   15 cycles
            NFock= 15  Conv=0.49D-08     -V/T= 2.0033
 KE= 5.655365246492D+02 PE=-1.658619805356D+03 EE= 3.680658496138D+02
 Leave Link  502 at Thu Sep 17 12:30:16 2015, MaxMem=    33554432 cpu:         5.7
 (Enter /group/hpc-share/gaussian/2009D/g09/l701.exe)
 Compute integral first derivatives.
 ... and contract with generalized density number  0.
 Leave Link  701 at Thu Sep 17 12:30:16 2015, MaxMem=    33554432 cpu:         1.3
 (Enter /group/hpc-share/gaussian/2009D/g09/l702.exe)
 L702 exits ... SP integral derivatives will be done elsewhere.
 Leave Link  702 at Thu Sep 17 12:30:16 2015, MaxMem=    33554432 cpu:         0.2
 (Enter /group/hpc-share/gaussian/2009D/g09/l703.exe)
 Compute integral first derivatives, UseDBF=F ICtDFT=           0.
 Integral derivatives from FoFJK, PRISM(SPDF).
 Calling FoFJK, ICntrl=      2127 FMM=F ISym2X=1 I1Cent= 0 IOpClX= 0 NMat=1 NMatS=1 NMatT=0.
 FoFJK:  IHMeth= 1 ICntrl=    2127 DoSepK=F KAlg= 0 I1Cent=   0 FoldK=F
 IRaf=         0 NMat=   1 IRICut=       1 DoRegI=T DoRafI=F ISym2E= 1.
 FoFCou: FMM=F IPFlag=           0 FMFlag=      100000 FMFlg1=         800
         NFxFlg=           0 DoJE=F BraDBF=F KetDBF=F FulRan=T
         wScrn=  0.000000 ICntrl=    2127 IOpCl=  0 I1Cent=           0 NGrid=           0
         NMat0=    1 NMatS0=      1 NMatT0=    0 NMatD0=    1 NMtDS0=    0 NMtDT0=    0
 Petite list used in FoFCou.
 Leave Link  703 at Thu Sep 17 12:30:16 2015, MaxMem=    33554432 cpu:         2.6
 (Enter /group/hpc-share/gaussian/2009D/g09/l716.exe)
 Dipole        = 1.32085064D+00 8.28267377D-01 0.00000000D+00
 ***** Axes restored to original set *****
 -------------------------------------------------------------------
 Center     Atomic                   Forces (Hartrees/Bohr)
 Number     Number              X              Y              Z
 -------------------------------------------------------------------
      1        8          -0.019570382    0.000000000    0.127990829
      2        7           0.011542156    0.000000000   -0.152006892
      3       16           0.008649524    0.000000000   -0.001263822
      4        6           0.001855530    0.000000000    0.019668495
      5        1           0.004111454    0.000000000    0.002537903
      6        1          -0.003294141    0.005245445    0.001536743
      7        1          -0.003294141   -0.005245445    0.001536743
 -------------------------------------------------------------------
 Cartesian Forces:  Max     0.152006892 RMS     0.043956403
 Leave Link  716 at Thu Sep 17 12:30:16 2015, MaxMem=    33554432 cpu:         0.1
 (Enter /group/hpc-share/gaussian/2009D/g09/l103.exe)

 GradGradGradGradGradGradGradGradGradGradGradGradGradGradGradGradGradGrad
 Berny optimization.
 Using GEDIIS/GDIIS optimizer.
 FormGI is forming the generalized inverse of G from B-inverse, IUseBI=4.
 Internal  Forces:  Max     0.129360298 RMS     0.032923452
 Search for a local minimum.
 Step number   2 out of a maximum of   28
 All quantities printed in internal units (Hartrees-Bohrs-Radians)
 RMS Force = .32923D-01 SwitMx=.10000D-02 MixMth= 1
 Mixed Optimization -- RFO/linear search
 Update second derivatives using D2CorX and points    1    2
 DE= -5.21D-02 DEPred=-6.95D-02 R= 7.50D-01
 TightC=F SS=  1.41D+00  RLast= 3.00D-01 DXNew= 5.0454D-01 9.0017D-01
 Trust test= 7.50D-01 RLast= 3.00D-01 DXMaxT set to 5.05D-01
 The second derivative matrix:
                          R1        R2        R3        R4        R5
           R1           0.35727
           R2           0.03079   0.47423
           R3           0.04136   0.01693   0.38179
           R4           0.00700   0.00219   0.00469   0.34990
           R5           0.00367  -0.00204  -0.00310  -0.00049   0.34920
           R6           0.00367  -0.00204  -0.00310  -0.00049  -0.00009
           A1           0.01699   0.00666   0.01373   0.00185  -0.00126
           A2           0.08883   0.06394   0.12253   0.01711  -0.00810
           A3           0.00074   0.00434   0.00766   0.00111  -0.00027
           A4           0.00163   0.00120   0.00230   0.00032  -0.00015
           A5           0.00163   0.00120   0.00230   0.00032  -0.00015
           A6          -0.00205  -0.00303  -0.00555  -0.00079   0.00027
           A7          -0.00205  -0.00303  -0.00555  -0.00079   0.00027
           A8           0.00003  -0.00064  -0.00110  -0.00016   0.00003
           D1           0.00000   0.00000   0.00000   0.00000   0.00000
           D2           0.00000   0.00000   0.00000   0.00000   0.00000
           D3           0.00015  -0.00077  -0.00133  -0.00020   0.00003
           D4          -0.00015   0.00077   0.00133   0.00020  -0.00003
                          R6        A1        A2        A3        A4
           R6           0.34920
           A1          -0.00126   0.25544
           A2          -0.00810   0.04877   0.66100
           A3          -0.00027   0.00307   0.02382   0.16122
[...]
 Integral derivatives from FoFJK, PRISM(SPDF).
 Calling FoFJK, ICntrl=      2127 FMM=F ISym2X=1 I1Cent= 0 IOpClX= 0 NMat=1 NMatS=1 NMatT=0.
 FoFJK:  IHMeth= 1 ICntrl=    2127 DoSepK=F KAlg= 0 I1Cent=   0 FoldK=F
 IRaf=         0 NMat=   1 IRICut=       1 DoRegI=T DoRafI=F ISym2E= 1.
 FoFCou: FMM=F IPFlag=           0 FMFlag=      100000 FMFlg1=         800
         NFxFlg=           0 DoJE=F BraDBF=F KetDBF=F FulRan=T
         wScrn=  0.000000 ICntrl=    2127 IOpCl=  0 I1Cent=           0 NGrid=           0
         NMat0=    1 NMatS0=      1 NMatT0=    0 NMatD0=    1 NMtDS0=    0 NMtDT0=    0
 Petite list used in FoFCou.
 Leave Link  703 at Thu Sep 17 12:30:34 2015, MaxMem=    33554432 cpu:         2.8
 (Enter /group/hpc-share/gaussian/2009D/g09/l716.exe)
 Dipole        = 8.91948702D-01 3.30933317D-01 0.00000000D+00
 ***** Axes restored to original set *****
 -------------------------------------------------------------------
 Center     Atomic                   Forces (Hartrees/Bohr)
 Number     Number              X              Y              Z
 -------------------------------------------------------------------
      1        8          -0.000028740    0.000000000   -0.000128283
      2        7           0.000073226    0.000000000    0.000111758
      3       16          -0.000089102    0.000000000    0.000104578
      4        6           0.000047584    0.000000000   -0.000133212
      5        1           0.000024578    0.000000000   -0.000003746
      6        1          -0.000013773    0.000004538    0.000024452
      7        1          -0.000013773   -0.000004538    0.000024452
 -------------------------------------------------------------------
 Cartesian Forces:  Max     0.000133212 RMS     0.000060259
 Leave Link  716 at Thu Sep 17 12:30:34 2015, MaxMem=    33554432 cpu:         0.2
 (Enter /group/hpc-share/gaussian/2009D/g09/l103.exe)

 GradGradGradGradGradGradGradGradGradGradGradGradGradGradGradGradGradGrad
 Berny optimization.
 Using GEDIIS/GDIIS optimizer.
 FormGI is forming the generalized inverse of G from B-inverse, IUseBI=4.
 Internal  Forces:  Max     0.000125454 RMS     0.000048634
 Search for a local minimum.
 Step number  10 out of a maximum of   28
 All quantities printed in internal units (Hartrees-Bohrs-Radians)
 RMS Force = .48634D-04 SwitMx=.10000D-02 MixMth= 2
 Mixed Optimization -- En-DIIS/RFO-DIIS
 Swapping is turned off.
 Update second derivatives using D2CorX and points    2    3    4    5    6
                                                      7    8    9   10
 DE= -1.36D-06 DEPred=-1.28D-06 R= 1.07D+00
 TightC=F SS=  1.41D+00  RLast= 2.92D-03 DXNew= 1.4270D+00 8.7581D-03
 Trust test= 1.07D+00 RLast= 2.92D-03 DXMaxT set to 8.49D-01
 The second derivative matrix:
                          R1        R2        R3        R4        R5
           R1           0.92699
           R2           0.14853   0.12403
           R3          -0.02913  -0.01768   0.31886
           R4           0.00330   0.00078  -0.00147   0.35052
           R5           0.00253   0.00028   0.00636  -0.00081   0.35228
           R6           0.00253   0.00028   0.00636  -0.00081   0.00300
           A1           0.10258   0.04711  -0.03013   0.00614   0.00303
           A2          -0.02453   0.03904  -0.01090   0.00239  -0.00442
           A3          -0.00722  -0.00917  -0.01237   0.00354  -0.00272
           A4           0.01041   0.00187   0.00778  -0.00052  -0.00051
           A5           0.01041   0.00187   0.00778  -0.00052  -0.00051
           A6          -0.00941   0.00119  -0.00054  -0.00147   0.00229
           A7          -0.00941   0.00119  -0.00054  -0.00147   0.00229
           A8           0.00371   0.00257  -0.00255   0.00046  -0.00082
           D1           0.00000   0.00000   0.00000   0.00000   0.00000
           D2           0.00000   0.00000   0.00000   0.00000   0.00000
           D3           0.00887   0.00335   0.00019   0.00137  -0.00299
           D4          -0.00887  -0.00335  -0.00019  -0.00137   0.00299
                          R6        A1        A2        A3        A4
           R6           0.35228
           A1           0.00303   0.38547
           A2          -0.00442   0.10304   0.20532
           A3          -0.00272   0.00645   0.03109   0.16400
           A4          -0.00051   0.01015  -0.01180   0.00348   0.15666
           A5          -0.00051   0.01015  -0.01180   0.00348  -0.00334
           A6           0.00229  -0.01312  -0.00593  -0.00639   0.00154
           A7           0.00229  -0.01312  -0.00593  -0.00639   0.00154
           A8          -0.00082  -0.00140   0.00442   0.00142   0.00034
           D1           0.00000   0.00000   0.00000   0.00000   0.00000
           D2           0.00000   0.00000   0.00000   0.00000   0.00000
           D3          -0.00299   0.00712   0.00648   0.00691  -0.00164
           D4           0.00299  -0.00712  -0.00648  -0.00691   0.00164
                          A5        A6        A7        A8        D1
           A5           0.15666
           A6           0.00154   0.16196
           A7           0.00154   0.00196   0.16196
           A8           0.00034  -0.00066  -0.00066   0.15927
           D1           0.00000   0.00000   0.00000   0.00000   0.02288
           D2           0.00000   0.00000   0.00000   0.00000   0.00000
           D3          -0.00164  -0.00172  -0.00172  -0.00006   0.00000
           D4           0.00164   0.00172   0.00172   0.00006   0.00000
                          D2        D3        D4
           D2           0.01561
           D3           0.00000   0.01661
           D4           0.00000  -0.00100   0.01661
 ITU=  1  1  1  1  1  1  1  0  1  0
     Eigenvalues ---    0.01561   0.02288   0.07621   0.10080   0.10652
     Eigenvalues ---    0.13564   0.16000   0.16628   0.18837   0.30979
     Eigenvalues ---    0.34928   0.34993   0.35760   0.43312   0.97637
 En-DIIS/RFO-DIIS IScMMF=        0 using points:    10    9    8
 RFO step:  Lambda=-7.67141500D-08.
 NNeg= 0 NP= 3 Switch=  2.50D-03 Rises=F DC=  1.27D-05 SmlDif=  1.00D-05
 RMS Error=  0.9985214362D-04 NUsed= 3 EDIIS=F
 DidBck=F Rises=F RFO-DIIS coefs:    1.05219   -0.04721   -0.00498
 Iteration  1 RMS(Cart)=  0.00057145 RMS(Int)=  0.00000016
 Iteration  2 RMS(Cart)=  0.00000020 RMS(Int)=  0.00000004
 ITry= 1 IFail=0 DXMaxC= 1.07D-03 DCOld= 1.00D+10 DXMaxT= 8.49D-01 DXLimC= 3.00D+00 Rises=F
 ClnCor:  largest displacement from symmetrization is 1.71D-12 for atom     2.
 Variable       Old X    -DE/DX   Delta X   Delta X   Delta X     New X
                                 (Linear)    (Quad)   (Total)
    R1        2.21952   0.00013  -0.00004   0.00030   0.00026   2.21978
    R2        3.40581  -0.00003  -0.00006  -0.00079  -0.00085   3.40495
    R3        3.38521  -0.00010  -0.00005  -0.00028  -0.00033   3.38488
    R4        2.08264   0.00001   0.00000   0.00004   0.00004   2.08268
    R5        2.08144   0.00001   0.00001   0.00004   0.00005   2.08148
    R6        2.08144   0.00001   0.00001   0.00004   0.00005   2.08148
    A1        2.03131   0.00009  -0.00007   0.00015   0.00008   2.03139
    A2        1.65726   0.00006   0.00005   0.00048   0.00053   1.65779
    A3        1.86608  -0.00004  -0.00009  -0.00035  -0.00044   1.86563
    A4        1.93658   0.00004   0.00005   0.00026   0.00030   1.93688
    A5        1.93658   0.00004   0.00005   0.00026   0.00030   1.93688
    A6        1.90119  -0.00001   0.00001  -0.00005  -0.00004   1.90115
    A7        1.90119  -0.00001   0.00001  -0.00005  -0.00004   1.90115
    A8        1.92082  -0.00002  -0.00001  -0.00009  -0.00010   1.92072
    D1        3.14159   0.00000   0.00000   0.00000   0.00000   3.14159
    D2        3.14159   0.00000   0.00000   0.00000   0.00000   3.14159
    D3       -1.07058  -0.00001  -0.00002  -0.00012  -0.00015  -1.07073
    D4        1.07058   0.00001   0.00002   0.00012   0.00015   1.07073
         Item               Value     Threshold  Converged?
 Maximum Force            0.000125     0.000450     YES
 RMS     Force            0.000049     0.000300     YES
 Maximum Displacement     0.001067     0.001800     YES
 RMS     Displacement     0.000571     0.001200     YES
 Predicted change in Energy=-8.973408D-08
 Optimization completed.
    -- Stationary point found.
                           ----------------------------
                           !   Optimized Parameters   !
                           ! (Angstroms and Degrees)  !
 --------------------------                            --------------------------
 ! Name  Definition              Value          Derivative Info.                !
 --------------------------------------------------------------------------------
 ! R1    R(1,2)                  1.1745         -DE/DX =    0.0001              !
 ! R2    R(2,3)                  1.8023         -DE/DX =    0.0                 !
 ! R3    R(3,4)                  1.7914         -DE/DX =   -0.0001              !
 ! R4    R(4,5)                  1.1021         -DE/DX =    0.0                 !
 ! R5    R(4,6)                  1.1014         -DE/DX =    0.0                 !
 ! R6    R(4,7)                  1.1014         -DE/DX =    0.0                 !
 ! A1    A(1,2,3)              116.3854         -DE/DX =    0.0001              !
 ! A2    A(2,3,4)               94.9541         -DE/DX =    0.0001              !
 ! A3    A(3,4,5)              106.9182         -DE/DX =    0.0                 !
 ! A4    A(3,4,6)              110.9578         -DE/DX =    0.0                 !
 ! A5    A(3,4,7)              110.9578         -DE/DX =    0.0                 !
 ! A6    A(5,4,6)              108.9302         -DE/DX =    0.0                 !
 ! A7    A(5,4,7)              108.9302         -DE/DX =    0.0                 !
 ! A8    A(6,4,7)              110.0551         -DE/DX =    0.0                 !
 ! D1    D(1,2,3,4)            180.0            -DE/DX =    0.0                 !
 ! D2    D(2,3,4,5)            180.0            -DE/DX =    0.0                 !
 ! D3    D(2,3,4,6)            -61.3396         -DE/DX =    0.0                 !
 ! D4    D(2,3,4,7)             61.3396         -DE/DX =    0.0                 !
 --------------------------------------------------------------------------------
 Lowest energy point so far.  Saving SCF results.
 GradGradGradGradGradGradGradGradGradGradGradGradGradGradGradGradGradGrad

 Largest change from initial coordinates is atom    7       0.458 Angstoms.
 Leave Link  103 at Thu Sep 17 12:30:34 2015, MaxMem=    33554432 cpu:         0.0
 (Enter /group/hpc-share/gaussian/2009D/g09/l202.exe)
                          Input orientation:                          
 ---------------------------------------------------------------------
 Center     Atomic      Atomic             Coordinates (Angstroms)
 Number     Number       Type             X           Y           Z
 ---------------------------------------------------------------------
      1          8           0        0.054981    0.000000   -0.201251
      2          7           0       -0.072500    0.000000    0.966330
      3         16           0        1.445550    0.000000    1.937782
      4          6           0        0.613884    0.000000    3.524400
      5          1           0        1.398859    0.000000    4.297968
      6          1           0       -0.005957    0.902557    3.644303
      7          1           0       -0.005957   -0.902557    3.644303
 ---------------------------------------------------------------------
                    Distance matrix (angstroms):
                    1          2          3          4          5
     1  O    0.000000
     2  N    1.174520   0.000000
     3  S    2.551302   1.802275   0.000000
     4  C    3.767340   2.648555   1.791376   0.000000
     5  H    4.695635   3.642075   2.360649   1.102086   0.000000
     6  H    3.950520   2.826761   2.415305   1.101449   1.793153
     7  H    3.950520   2.826761   2.415305   1.101449   1.793153
                    6          7
     6  H    0.000000
     7  H    1.805115   0.000000
 Stoichiometry    CH3NOS
 Framework group  CS[SG(CHNOS),X(H2)]
 Deg. of freedom    10
 Full point group                 CS      NOp   2
 RotChk:  IX=0 Diff= 9.20D-16
 Largest Abelian subgroup         CS      NOp   2
 Largest concise Abelian subgroup CS      NOp   2
                         Standard orientation:                         
 ---------------------------------------------------------------------
 Center     Atomic      Atomic             Coordinates (Angstroms)
 Number     Number       Type             X           Y           Z
 ---------------------------------------------------------------------
      1          8           0       -1.666530   -1.158881    0.000000
      2          7           0       -0.509702   -0.955787    0.000000
      3         16           0        0.000000    0.772911    0.000000
      4          6           0        1.755576    0.416569    0.000000
      5          1           0        2.279621    1.386090    0.000000
      6          1           0        2.043536   -0.145266    0.902557
      7          1           0        2.043536   -0.145266   -0.902557
 ---------------------------------------------------------------------
 Rotational constants (GHZ):     19.1524055      3.8142251      3.2479000
 Leave Link  202 at Thu Sep 17 12:30:34 2015, MaxMem=    33554432 cpu:         0.0
 (Enter /group/hpc-share/gaussian/2009D/g09/l601.exe)
 Copying SCF densities to generalized density rwf, IOpCl= 0 IROHF=0.

 **********************************************************************

            Population analysis using the SCF density.

 **********************************************************************

 Orbital symmetries:
       Occupied  (A') (A') (A') (A') (A') (A') (A') (A") (A') (A')
                 (A') (A') (A') (A") (A') (A") (A') (A') (A") (A')
       Virtual   (A") (A') (A') (A') (A') (A") (A') (A') (A") (A')
                 (A') (A") (A') (A') (A") (A') (A') (A') (A') (A")
                 (A') (A") (A") (A') (A') (A') (A") (A') (A') (A')
                 (A') (A") (A') (A") (A') (A") (A') (A") (A') (A')
                 (A") (A') (A') (A") (A') (A') (A") (A") (A') (A')
                 (A')
 The electronic state is 1-A'.
 Alpha  occ. eigenvalues --  -89.02879 -19.28560 -14.53337 -10.26859  -8.03132
 Alpha  occ. eigenvalues --   -5.97271  -5.96949  -5.96442  -1.22181  -0.84701
 Alpha  occ. eigenvalues --   -0.72204  -0.61872  -0.52244  -0.50221  -0.49488
 Alpha  occ. eigenvalues --   -0.45655  -0.43798  -0.38373  -0.27566  -0.24608
 Alpha virt. eigenvalues --   -0.08179   0.00072   0.06668   0.10190   0.11653
 Alpha virt. eigenvalues --    0.12688   0.29201   0.38303   0.39897   0.42823
 Alpha virt. eigenvalues --    0.47958   0.55284   0.58675   0.61638   0.65232
 Alpha virt. eigenvalues --    0.66240   0.68446   0.69560   0.69937   0.70002
 Alpha virt. eigenvalues --    0.74861   0.75708   0.83286   0.87296   0.90596
 Alpha virt. eigenvalues --    0.94353   0.99182   1.03455   1.05614   1.13902
 Alpha virt. eigenvalues --    1.39043   1.69094   1.71849   1.90027   1.97275
 Alpha virt. eigenvalues --    2.05337   2.09125   2.10846   2.12499   2.29031
 Alpha virt. eigenvalues --    2.64072   2.65639   2.68267   3.22402   3.24660
 Alpha virt. eigenvalues --    3.69036   4.63439   4.65256   4.68913   4.77900
 Alpha virt. eigenvalues --    4.93154
          Condensed to atoms (all electrons):
               1          2          3          4          5          6
     1  O    7.922219   0.317706  -0.098214   0.003471  -0.000066   0.000082
     2  N    0.317706   6.627603   0.102396  -0.027449   0.002567   0.002996
     3  S   -0.098214   0.102396  15.757633   0.247754  -0.022705  -0.029862
     4  C    0.003471  -0.027449   0.247754   5.092008   0.377065   0.374953
     5  H   -0.000066   0.002567  -0.022705   0.377065   0.491870  -0.014442
     6  H    0.000082   0.002996  -0.029862   0.374953  -0.014442   0.499793
     7  H    0.000082   0.002996  -0.029862   0.374953  -0.014442  -0.015437
               7
     1  O    0.000082
     2  N    0.002996
     3  S   -0.029862
     4  C    0.374953
     5  H   -0.014442
     6  H   -0.015437
     7  H    0.499793
 Mulliken charges:
               1
     1  O   -0.145281
     2  N   -0.028814
     3  S    0.072860
     4  C   -0.442754
     5  H    0.180154
     6  H    0.181918
     7  H    0.181918
 Sum of Mulliken charges =   0.00000
 Mulliken charges with hydrogens summed into heavy atoms:
               1
     1  O   -0.145281
     2  N   -0.028814
     3  S    0.072860
     4  C    0.101235
 Electronic spatial extent (au):  <R**2>=            379.9485
 Charge=              0.0000 electrons
 Dipole moment (field-independent basis, Debye):
    X=              2.2671    Y=              0.8411    Z=              0.0000  Tot=              2.4181
 Quadrupole moment (field-independent basis, Debye-Ang):
   XX=            -29.2064   YY=            -32.0144   ZZ=            -29.9795
   XY=              0.1430   XZ=              0.0000   YZ=              0.0000
 Traceless Quadrupole moment (field-independent basis, Debye-Ang):
   XX=              1.1937   YY=             -1.6143   ZZ=              0.4206
   XY=              0.1430   XZ=              0.0000   YZ=              0.0000
 Octapole moment (field-independent basis, Debye-Ang**2):
  XXX=              1.9336  YYY=             -0.9618  ZZZ=              0.0000  XYY=              1.6109
  XXY=              3.2904  XXZ=              0.0000  XZZ=             -1.8978  YZZ=             -3.7904
  YYZ=              0.0000  XYZ=              0.0000
 Hexadecapole moment (field-independent basis, Debye-Ang**3):
 XXXX=           -279.0184 YYYY=           -162.6659 ZZZZ=            -36.8067 XXXY=            -55.8658
 XXXZ=              0.0000 YYYX=            -51.3859 YYYZ=              0.0000 ZZZX=              0.0000
 ZZZY=              0.0000 XXYY=            -72.2694 XXZZ=            -49.0748 YYZZ=            -33.2789
 XXYZ=              0.0000 YYXZ=              0.0000 ZZXY=            -18.0042
 N-N= 1.549671559535D+02 E-N=-1.653397799319D+03  KE= 5.656361865563D+02
 Symmetry A'   KE= 5.209164218304D+02
 Symmetry A"   KE= 4.471976472592D+01
 No NMR shielding tensors so no spin-rotation constants.
 Leave Link  601 at Thu Sep 17 12:30:35 2015, MaxMem=    33554432 cpu:         1.6
 (Enter /group/hpc-share/gaussian/2009D/g09/l9999.exe)
 B after Tr=    -0.079899    0.000000    0.222965
         Rot=    0.999747    0.000000   -0.022473    0.000000 Ang=  -2.58 deg.
 Final structure in terms of initial Z-matrix:
 O
 N,1,no2
 S,2,sn3,1,sno3
 C,3,cs4,1,cso4,2,dih4,0
 H,4,hc5,3,hcs5,1,dih5,0
 H,4,hc6,3,hcs6,5,dih6,0
 H,4,hc7,3,hcs7,5,dih7,0
      Variables:
 no2=1.17452015
 sn3=1.80227461
 sno3=116.38543193
 cs4=1.79137574
 cso4=119.31001351
 dih4=0.
 hc5=1.10208619
 hcs5=106.91824412
 dih5=180.
 hc6=1.10144857
 hcs6=110.95775935
 dih6=118.66043009
 hc7=1.10144857
 hcs7=110.95775935
 dih7=-118.66043009
 1\1\GINC-HPC-CN12\FOpt\RPBE1PBE\Gen\C1H3N1O1S1\6498IVANOVM\17-Sep-2015
 \0\\#P PBE1PBE/gen opt\\trans-mesno\\0,1\O,0.1316600565,0.,-0.23459196
 77\N,0.0041785586,0.,0.932989313\S,1.522228642,0.,1.9044406649\C,0.690
 5628362,0.,3.4910594113\H,1.4755382505,0.,4.2646274909\H,0.0707220452,
 0.9025572771,3.6109622798\H,0.0707220452,-0.9025572771,3.6109622798\\V
 ersion=EM64L-G09RevD.01\State=1-A'\HF=-567.4074102\RMSD=7.132e-09\RMSF
 =6.026e-05\Dipole=0.0691372,0.,0.9488464\Quadrupole=-1.0948359,0.31267
 48,0.7821611,0.,-0.4691511,0.\PG=CS [SG(C1H1N1O1S1),X(H2)]\\@


 TOM, TOM, THE BURGLAR'S SON
 STOLE A MACHINE AND AWAY HE RUN
 THE JOB WAS NEAT, BUT TOM GOT BEAT
 BY THE TIME HE GOT HOME IT WAS OBSOLETE.
 Job cpu time:       0 days  0 hours  2 minutes 30.5 seconds.
 File lengths (MBytes):  RWF=      5 Int=      0 D2E=      0 Chk=      1 Scr=      1
 Normal termination of Gaussian 09 at Thu Sep 17 12:30:35 2015.
