 Entering Gaussian System, Link 0=g09
 Input=trans-mesno.com
 Output=trans-mesno.log
 AtFile(1): trans-mesno.zmat
             o
             n   1 no2
             s    2 sn3         1 sno3
             c    3 cs4         1 cso4          2 dih4
             h    4 hc5         3 hcs5          1 dih5
             h    4 hc6         3 hcs6          5 dih6
             h    4 hc7         3 hcs7          5 dih7
            
            no2         1.400000
            sn3         1.625000
            sno3        109.471
            cs4         1.710000
            cso4        109.471
            dih4          0.000
            hc5         1.089000
            hcs5        109.471
            dih5        180.000
            hc6         1.089000
            hcs6        109.471
            dih6        120.000
            hc7         1.089000
            hcs7        109.471
            dih7        240.000
 AtFile(1): /home/MARQNET/talipovm/basis-library/def2-SV(P)+d.gbs
            !  Def2-SV(P)  EMSL  Basis Set Exchange Library   3/29/11 8:36 AM
            ! Elements                             References
            ! --------                             ----------
            ! H He Li Be B C N O F Ne Na Mg Al Si P S Cl Ar K Ca Sc Ti V Cr Mn Fe Co Ni Cu Zn Ga Ge As Se Br Kr Rb Sr Y Zr Nb Mo Tc Ru Rh Pd Ag Cd In Sn Sb Te I Xe Cs Ba La Hf Ta W Re Os Ir Pt Au Hg Tl Pb Bi Po At Rn : F. Weigend and R. Ahlrichs, Phys. Chem. Chem. Phys., Balanced basis sets of split valence, triple zeta valence and quadruple zeta valence
            ! quality for H to Rn: Design and assessment of accuracy 7, 3297 (2005).
            !
            -H     0
            S   3   1.00
                 13.0107010              0.19682158E-01
                  1.9622572              0.13796524
                  0.44453796             0.47831935
            S   1   1.00
                  0.12194962             1.0000000
            ****
            -B     0
            S   5   1.00
                839.31830086            -0.55929201074E-02
                126.26464843            -0.41565520771E-01
                 28.620600763           -0.18299816983
                  7.8793722710          -0.46540391866
                  2.4088857172          -0.44173884791
            S   1   1.00
                  0.25105109036          1.0000000
            S   1   1.00
                  0.83648866069E-01            1.0000000
            P   3   1.00
                  6.0332223619          -0.35603672456E-01
                  1.2499157866          -0.19895775769
                  0.33871676350         -0.50850202618
            P   1   1.00
                  0.96415632351E-01            1.0000000
            D   1   1.00
                  0.5000000              1.0000000
            ****
            -C     0
            S   5   1.00
               1238.4016938              0.54568832082E-02
                186.29004992             0.40638409211E-01
                 42.251176346            0.18025593888
                 11.676557932            0.46315121755
                  3.5930506482           0.44087173314
            S   1   1.00
                  0.40245147363          1.0000000
            S   1   1.00
                  0.13090182668          1.0000000
            P   3   1.00
                  9.4680970621           0.38387871728E-01
                  2.0103545142           0.21117025112
                  0.54771004707          0.51328172114
            P   1   1.00
                  0.15268613795          1.0000000
            D   1   1.00
                  0.8000000              1.0000000
            ****
            -N     0
            S   5   1.00
               1712.8415853             -0.53934125305E-02
                257.64812677            -0.40221581118E-01
                 58.458245853           -0.17931144990
                 16.198367905           -0.46376317823
                  5.0052600809          -0.44171422662
            S   1   1.00
                  0.58731856571          1.0000000
            S   1   1.00
                  0.18764592253          1.0000000
            P   3   1.00
                 13.571470233           -0.40072398852E-01
                  2.9257372874          -0.21807045028
                  0.79927750754         -0.51294466049
            P   1   1.00
                  0.21954348034          1.0000000
            D   1   1.00
                  1.0000000              1.0000000
            ****
            -O     0
            S   5   1.00
               2266.1767785             -0.53431809926E-02
                340.87010191            -0.39890039230E-01
                 77.363135167           -0.17853911985
                 21.479644940           -0.46427684959
                  6.6589433124          -0.44309745172
            S   1   1.00
                  0.80975975668          1.0000000
            S   1   1.00
                  0.25530772234          1.0000000
            P   3   1.00
                 17.721504317            0.43394573193E-01
                  3.8635505440           0.23094120765
                  1.0480920883           0.51375311064
            P   1   1.00
                  0.27641544411          1.0000000
            D   1   1.00
                  1.2000000              1.0000000
            ****
            -F     0
            S   5   1.00
               2894.8325990             -0.53408255515E-02
                435.41939120            -0.39904258866E-01
                 98.843328866           -0.17912768038
                 27.485198001           -0.46758090825
                  8.5405498171          -0.44653131020
            S   1   1.00
                  1.0654578038           1.0000000
            S   1   1.00
                  0.33247346748          1.0000000
            P   3   1.00
                 22.696633924           -0.45212874436E-01
                  4.9872339257          -0.23754317067
                  1.3491613954          -0.51287353587
            P   1   1.00
                  0.34829881977          1.0000000
            D   1   1.00
                  1.4000000              1.0000000
            ****
            -S     0
            S   5   1.00
               9184.9303010             -0.22294387756E-02
               1381.5105503             -0.16683029937E-01
                313.87147580            -0.75262436116E-01
                 88.053870623           -0.19376827038
                 27.039914905           -0.17718020803
            S   3   1.00
                 45.648731303           -0.10736062573
                  4.9664522326           0.65066293018
                  2.0116242047           0.59712155354
            S   1   1.00
                  0.35661077013          1.0000000
            S   1   1.00
                  0.13507221477          1.0000000
            P   5   1.00
                261.98233439            -0.92729929822E-02
                 61.306894736           -0.66547669241E-01
                 19.103729887           -0.24828595903
                  6.6567720378          -0.48703847402
                  2.3959635161          -0.39337850312
            P   1   1.00
                  0.61776161679          1.0000000
            P   1   1.00
                  0.16993376871          1.0000000
            D   1   1.00
                  0.5500000              1.0000000
            D   1   1.00
                  2.9940000              1.0000000
            ****
            -Cl     0
            S   5   1.00
              10449.8275660              0.19708362484E-02
               1571.7365221              0.14754727977E-01
                357.12065523             0.66679112875E-01
                100.25185935             0.17228924084
                 30.812727554            0.15883786100
            S   3   1.00
                 51.923789434           -0.10009298909
                  5.7045760975           0.60841752753
                  2.3508376809           0.54352153355
            S   1   1.00
                  0.44605124672          1.0000000
            S   1   1.00
                  0.16848856190          1.0000000
            P   5   1.00
                307.66790569            -0.87801484118E-02
                 72.102015515           -0.63563355471E-01
                 22.532680262           -0.24016428276
                  7.8991765444          -0.47798866557
                  2.8767268321          -0.38515850005
            P   1   1.00
                  0.77459363955          1.0000000
            P   1   1.00
                  0.21037699698          1.0000000
            D   1   1.00
                  0.6500000              1.0000000
            D   1   1.00
                  3.6520000              1.0000000
            ****
            -Al     0
            S   5   1.00
               5887.5727030              0.13483347987E-02
                885.61225996             0.10071576809E-01
                201.13604899             0.45132454056E-01
                 56.284974674            0.11461268043
                 17.229551243            0.10159608943
            S   3   1.00
                 29.340249922            0.69347454208E-01
                  3.0439630420          -0.42528117679
                  1.1285539518          -0.41449832210
            S   1   1.00
                  0.14234175160          1.0000000
            S   1   1.00
                  0.54400192313E-01            1.0000000
            P   5   1.00
                145.11918809             0.63963373134E-02
                 33.717894833            0.44189359965E-01
                 10.369863083            0.15581575993
                  3.5135616036           0.28635286951
                  1.1980050273           0.22921423248
            P   1   1.00
                  0.26583005913          1.0000000
            P   1   1.00
                  0.71003361994E-01            1.0000000
            D   1   1.00
                  0.3000000              1.0000000
            D   1   1.00
                  1.1950000              1.0000000
            ****
            -Ti     0
            S   6   1.00
              42961.5121850              0.39127635355E-02
               6450.9759169              0.29969820489E-01
               1467.7210915              0.14836352707
                414.20997355             0.51347285324
                134.48715840             1.0335365483
                 46.122209796            0.77854233930
            S   3   1.00
                 89.447762543           -0.28385401259
                 10.223346060            1.6772785333
                  4.1353774271           1.2411928456
            S   3   1.00
                  6.7896181452          -0.78399994518E-02
                  1.1106730691           0.25495493019E-01
                  0.47565975578          0.16061172892E-01
            S   1   1.00
                  0.65986956934E-01            1.0000000
            S   1   1.00
                  0.25210342250E-01            1.0000000
            P   5   1.00
                522.03684782             0.19754179642E-01
                122.68649489             0.14460677619
                 38.572903611            0.54669004165
                 13.672169319            1.0531647540
                  5.0118529359           0.69111213363
            P   3   1.00
                  2.4131928282           0.75803437136
                  0.93252270050          1.3036241399
                  0.35429058390          0.53638653300
            P   1   1.00
                  0.1015610              1.0000000
            D   4   1.00
                 23.465125957            0.26536380115E-01
                  6.3332593832           0.13796453963
                  2.0766489946           0.35312644228
                  0.69027361954          0.48647124166
            D   1   1.00
                  0.21088738554          1.0000000
            ****
            -P     0
            S   5   1.00
               8002.4795106              0.57503489302E-02
               1203.6813590              0.43007628959E-01
                273.44227031             0.19363986252
                 76.655541517            0.49651693399
                 23.516927435            0.44983262479
            S   3   1.00
                 39.791683439            0.95188129789E-01
                  4.2770343323          -0.57649840368
                  1.6940256888          -0.54239583865
            S   1   1.00
                  0.27567674644          1.0000000
            S   1   1.00
                  0.10495590099          1.0000000
            P   5   1.00
                219.50755823             0.92100565257E-02
                 51.274155030            0.65409765745E-01
                 15.921595892            0.24033730279
                  5.5069913481           0.46318321788
                  1.9537719426           0.37392563382
            P   1   1.00
                  0.47803397932          1.0000000
            P   1   1.00
                  0.13657952621          1.0000000
            D   1   1.00
                  0.4500000              1.0000000
            D   1   1.00
                   2.5060000              1.0000000
            ****
 Initial command:
 /group/hpc-share/gaussian/2009D/g09/l1.exe "/scratch/gaussian/g_trans-mesno.com-835183.hn1.marqnet.mu.edu/Gau-9186.inp" -scrdir="/scratch/gaussian/g_trans-mesno.com-835183.hn1.marqnet.mu.edu/"
 Entering Link 1 = /group/hpc-share/gaussian/2009D/g09/l1.exe PID=      9190.
  
 Copyright (c) 1988,1990,1992,1993,1995,1998,2003,2009,2013,
            Gaussian, Inc.  All Rights Reserved.
  
 This is part of the Gaussian(R) 09 program.  It is based on
 the Gaussian(R) 03 system (copyright 2003, Gaussian, Inc.),
 the Gaussian(R) 98 system (copyright 1998, Gaussian, Inc.),
 the Gaussian(R) 94 system (copyright 1995, Gaussian, Inc.),
 the Gaussian 92(TM) system (copyright 1992, Gaussian, Inc.),
 the Gaussian 90(TM) system (copyright 1990, Gaussian, Inc.),
 the Gaussian 88(TM) system (copyright 1988, Gaussian, Inc.),
 the Gaussian 86(TM) system (copyright 1986, Carnegie Mellon
 University), and the Gaussian 82(TM) system (copyright 1983,
 Carnegie Mellon University). Gaussian is a federally registered
 trademark of Gaussian, Inc.
  
 This software contains proprietary and confidential information,
 including trade secrets, belonging to Gaussian, Inc.
  
 This software is provided under written license and may be
 used, copied, transmitted, or stored only in accord with that
 written license.
  
 The following legend is applicable only to US Government
 contracts under FAR:
  
                    RESTRICTED RIGHTS LEGEND
  
 Use, reproduction and disclosure by the US Government is
 subject to restrictions as set forth in subparagraphs (a)
 and (c) of the Commercial Computer Software - Restricted
 Rights clause in FAR 52.227-19.
  
 Gaussian, Inc.
 340 Quinnipiac St., Bldg. 40, Wallingford CT 06492
  
  
 ---------------------------------------------------------------
 Warning -- This program may not be used in any manner that
 competes with the business of Gaussian, Inc. or will provide
 assistance to any competitor of Gaussian, Inc.  The licensee
 of this program is prohibited from giving any competitor of
 Gaussian, Inc. access to this program.  By using this program,
 the user acknowledges that Gaussian, Inc. is engaged in the
 business of creating and licensing software in the field of
 computational chemistry and represents and warrants to the
 licensee that it is not a competitor of Gaussian, Inc. and that
 it will not use this program in any manner prohibited above.
 ---------------------------------------------------------------
  

 Cite this work as:
 Gaussian 09, Revision D.01,
 M. J. Frisch, G. W. Trucks, H. B. Schlegel, G. E. Scuseria, 
 M. A. Robb, J. R. Cheeseman, G. Scalmani, V. Barone, B. Mennucci, 
 G. A. Petersson, H. Nakatsuji, M. Caricato, X. Li, H. P. Hratchian, 
 A. F. Izmaylov, J. Bloino, G. Zheng, J. L. Sonnenberg, M. Hada, 
 M. Ehara, K. Toyota, R. Fukuda, J. Hasegawa, M. Ishida, T. Nakajima, 
 Y. Honda, O. Kitao, H. Nakai, T. Vreven, J. A. Montgomery, Jr., 
 J. E. Peralta, F. Ogliaro, M. Bearpark, J. J. Heyd, E. Brothers, 
 K. N. Kudin, V. N. Staroverov, T. Keith, R. Kobayashi, J. Normand, 
 K. Raghavachari, A. Rendell, J. C. Burant, S. S. Iyengar, J. Tomasi, 
 M. Cossi, N. Rega, J. M. Millam, M. Klene, J. E. Knox, J. B. Cross, 
 V. Bakken, C. Adamo, J. Jaramillo, R. Gomperts, R. E. Stratmann, 
 O. Yazyev, A. J. Austin, R. Cammi, C. Pomelli, J. W. Ochterski, 
 R. L. Martin, K. Morokuma, V. G. Zakrzewski, G. A. Voth, 
 P. Salvador, J. J. Dannenberg, S. Dapprich, A. D. Daniels, 
 O. Farkas, J. B. Foresman, J. V. Ortiz, J. Cioslowski, 
 and D. J. Fox, Gaussian, Inc., Wallingford CT, 2013.
 
 ******************************************
 Gaussian 09:  EM64L-G09RevD.01 24-Apr-2013
                14-Oct-2015 
 ******************************************
 %nproc=8
 Will use up to    8 processors via shared memory.
 %chk=trans-mesno.chk
 ------------------------------------------------------------
 #P PBE1PBE/gen scrf(pcm,solvent=diethylether) scf(tight) opt
 ------------------------------------------------------------
 1/14=-1,18=20,19=15,26=3,38=1/1,3;
 2/9=110,12=2,17=6,18=5,40=1/2;
 3/5=7,11=2,16=1,25=1,30=1,70=2201,71=1,72=8,74=-13/1,2,3;
 4//1;
 5/5=2,32=2,38=5,53=8/2;
 6/7=2,8=2,9=2,10=2,28=1/1;
 7//1,2,3,16;
 1/14=-1,18=20,19=15,26=3/3(2);
 2/9=110/2;
 99//99;
 2/9=110/2;
 3/5=7,6=1,11=2,16=1,25=1,30=1,70=2205,71=1,72=8,74=-13,82=7/1,2,3;
 4/5=5,16=3,69=1/1;
 5/5=2,32=2,38=5,53=8/2;
 7//1,2,3,16;
 1/14=-1,18=20,19=15,26=3/3(-5);
 2/9=110/2;
 6/7=2,8=2,9=2,10=2,19=2,28=1/1;
 99/9=1/99;
 Leave Link    1 at Wed Oct 14 11:16:28 2015, MaxMem=           0 cpu:         0.7
 (Enter /group/hpc-share/gaussian/2009D/g09/l101.exe)
 -----------
 trans-mesno
 -----------
 Symbolic Z-matrix:
 Charge =  0 Multiplicity = 1
 o
 n                    1    no2
 s                    2    sn3      1    sno3
 c                    3    cs4      1    cso4     2    dih4     0
 h                    4    hc5      3    hcs5     1    dih5     0
 h                    4    hc6      3    hcs6     5    dih6     0
 h                    4    hc7      3    hcs7     5    dih7     0
       Variables:
  no2                   1.4                      
  sn3                   1.625                    
  sno3                109.471                    
  cs4                   1.71                     
  cso4                109.471                    
  dih4                  0.                       
  hc5                   1.089                    
  hcs5                109.471                    
  dih5                180.                       
  hc6                   1.089                    
  hcs6                109.471                    
  dih6                120.                       
  hc7                   1.089                    
  hcs7                109.471                    
  dih7                240.                       
 
     5 tetrahedral angles replaced.
 NAtoms=      7 NQM=        7 NQMF=       0 NMMI=      0 NMMIF=      0
                NMic=       0 NMicF=      0.
                    Isotopes and Nuclear Properties:
 (Nuclear quadrupole moments (NQMom) in fm**2, nuclear magnetic moments (NMagM)
  in nuclear magnetons)

  Atom         1           2           3           4           5           6           7
 IAtWgt=          16          14          32          12           1           1           1
 AtmWgt=  15.9949146  14.0030740  31.9720718  12.0000000   1.0078250   1.0078250   1.0078250
 NucSpn=           0           2           0           0           1           1           1
 AtZEff=   0.0000000   0.0000000   0.0000000   0.0000000   0.0000000   0.0000000   0.0000000
 NQMom=    0.0000000   2.0440000   0.0000000   0.0000000   0.0000000   0.0000000   0.0000000
 NMagM=    0.0000000   0.4037610   0.0000000   0.0000000   2.7928460   2.7928460   2.7928460
 AtZNuc=   8.0000000   7.0000000  16.0000000   6.0000000   1.0000000   1.0000000   1.0000000
 Leave Link  101 at Wed Oct 14 11:16:28 2015, MaxMem=    33554432 cpu:         1.1
 (Enter /group/hpc-share/gaussian/2009D/g09/l103.exe)

 GradGradGradGradGradGradGradGradGradGradGradGradGradGradGradGradGradGrad
 Berny optimization.
 Initialization pass.
                           ----------------------------
                           !    Initial Parameters    !
                           ! (Angstroms and Degrees)  !
 --------------------------                            --------------------------
 ! Name  Definition              Value          Derivative Info.                !
 --------------------------------------------------------------------------------
 ! R1    R(1,2)                  1.4            estimate D2E/DX2                !
 ! R2    R(2,3)                  1.625          estimate D2E/DX2                !
 ! R3    R(3,4)                  1.71           estimate D2E/DX2                !
 ! R4    R(4,5)                  1.089          estimate D2E/DX2                !
 ! R5    R(4,6)                  1.089          estimate D2E/DX2                !
 ! R6    R(4,7)                  1.089          estimate D2E/DX2                !
 ! A1    A(1,2,3)              109.4712         estimate D2E/DX2                !
 ! A2    A(2,3,4)               77.2175         estimate D2E/DX2                !
 ! A3    A(3,4,5)              109.4712         estimate D2E/DX2                !
 ! A4    A(3,4,6)              109.4712         estimate D2E/DX2                !
 ! A5    A(3,4,7)              109.4712         estimate D2E/DX2                !
 ! A6    A(5,4,6)              109.4712         estimate D2E/DX2                !
 ! A7    A(5,4,7)              109.4712         estimate D2E/DX2                !
 ! A8    A(6,4,7)              109.4712         estimate D2E/DX2                !
 ! D1    D(1,2,3,4)            180.0            estimate D2E/DX2                !
 ! D2    D(2,3,4,5)            180.0            estimate D2E/DX2                !
 ! D3    D(2,3,4,6)            -60.0            estimate D2E/DX2                !
 ! D4    D(2,3,4,7)             60.0            estimate D2E/DX2                !
 --------------------------------------------------------------------------------
 Trust Radius=3.00D-01 FncErr=1.00D-07 GrdErr=1.00D-06
 Number of steps in this run=     28 maximum allowed number of steps=    100.
 GradGradGradGradGradGradGradGradGradGradGradGradGradGradGradGradGradGrad

 Leave Link  103 at Wed Oct 14 11:16:28 2015, MaxMem=    33554432 cpu:         0.0
 (Enter /group/hpc-share/gaussian/2009D/g09/l202.exe)
                          Input orientation:                          
 ---------------------------------------------------------------------
 Center     Atomic      Atomic             Coordinates (Angstroms)
 Number     Number       Type             X           Y           Z
 ---------------------------------------------------------------------
      1          8           0        0.000000    0.000000    0.000000
      2          7           0        0.000000    0.000000    1.400000
      3         16           0        1.532065    0.000000    1.941667
      4          6           0        0.619490    0.000000    3.387802
      5          1           0        1.294058    0.000000    4.242717
      6          1           0       -0.008376    0.889165    3.420825
      7          1           0       -0.008376   -0.889165    3.420825
 ---------------------------------------------------------------------
                    Distance matrix (angstroms):
                    1          2          3          4          5
     1  O    0.000000
     2  N    1.400000   0.000000
     3  S    2.473316   1.625000   0.000000
     4  C    3.443976   2.082096   1.710000   0.000000
     5  H    4.435678   3.123400   2.313327   1.089000   0.000000
     6  H    3.534505   2.207808   2.313327   1.089000   1.778330
     7  H    3.534505   2.207808   2.313327   1.089000   1.778330
                    6          7
     6  H    0.000000
     7  H    1.778330   0.000000
 Stoichiometry    CH3NOS
 Framework group  CS[SG(CHNOS),X(H2)]
 Deg. of freedom    10
 Full point group                 CS      NOp   2
 Largest Abelian subgroup         CS      NOp   2
 Largest concise Abelian subgroup CS      NOp   2
                         Standard orientation:                         
 ---------------------------------------------------------------------
 Center     Atomic      Atomic             Coordinates (Angstroms)
 Number     Number       Type             X           Y           Z
 ---------------------------------------------------------------------
      1          8           0       -1.658165   -1.029426    0.000000
      2          7           0       -0.277874   -0.795340    0.000000
      3         16           0        0.000000    0.805725    0.000000
      4          6           0        1.578363    0.147798    0.000000
      5          1           0        2.308453    0.955814    0.000000
      6          1           0        1.715903   -0.465709    0.889165
      7          1           0        1.715903   -0.465709   -0.889165
 ---------------------------------------------------------------------
 Rotational constants (GHZ):     16.8968925      4.7099168      3.7708258
 Leave Link  202 at Wed Oct 14 11:16:28 2015, MaxMem=    33554432 cpu:         0.0
 (Enter /group/hpc-share/gaussian/2009D/g09/l301.exe)
 General basis read from cards:  (5D, 7F)
 Centers:       5      6      7
 S 3 1.00
     Exponent=  1.3010701000D+01 Coefficients=  1.9682158000D-02
     Exponent=  1.9622572000D+00 Coefficients=  1.3796524000D-01
     Exponent=  4.4453796000D-01 Coefficients=  4.7831935000D-01
 S 1 1.00
     Exponent=  1.2194962000D-01 Coefficients=  1.0000000000D+00
 ****
 Centers:       4
 S 5 1.00
     Exponent=  1.2384016938D+03 Coefficients=  5.4568832082D-03
     Exponent=  1.8629004992D+02 Coefficients=  4.0638409211D-02
     Exponent=  4.2251176346D+01 Coefficients=  1.8025593888D-01
     Exponent=  1.1676557932D+01 Coefficients=  4.6315121755D-01
     Exponent=  3.5930506482D+00 Coefficients=  4.4087173314D-01
 S 1 1.00
     Exponent=  4.0245147363D-01 Coefficients=  1.0000000000D+00
 S 1 1.00
     Exponent=  1.3090182668D-01 Coefficients=  1.0000000000D+00
 P 3 1.00
     Exponent=  9.4680970621D+00 Coefficients=  3.8387871728D-02
     Exponent=  2.0103545142D+00 Coefficients=  2.1117025112D-01
     Exponent=  5.4771004707D-01 Coefficients=  5.1328172114D-01
 P 1 1.00
     Exponent=  1.5268613795D-01 Coefficients=  1.0000000000D+00
 D 1 1.00
     Exponent=  8.0000000000D-01 Coefficients=  1.0000000000D+00
 ****
 Centers:       2
 S 5 1.00
     Exponent=  1.7128415853D+03 Coefficients= -5.3934125305D-03
     Exponent=  2.5764812677D+02 Coefficients= -4.0221581118D-02
     Exponent=  5.8458245853D+01 Coefficients= -1.7931144990D-01
     Exponent=  1.6198367905D+01 Coefficients= -4.6376317823D-01
     Exponent=  5.0052600809D+00 Coefficients= -4.4171422662D-01
 S 1 1.00
     Exponent=  5.8731856571D-01 Coefficients=  1.0000000000D+00
 S 1 1.00
     Exponent=  1.8764592253D-01 Coefficients=  1.0000000000D+00
 P 3 1.00
     Exponent=  1.3571470233D+01 Coefficients= -4.0072398852D-02
     Exponent=  2.9257372874D+00 Coefficients= -2.1807045028D-01
     Exponent=  7.9927750754D-01 Coefficients= -5.1294466049D-01
 P 1 1.00
     Exponent=  2.1954348034D-01 Coefficients=  1.0000000000D+00
 D 1 1.00
     Exponent=  1.0000000000D+00 Coefficients=  1.0000000000D+00
 ****
 Centers:       1
 S 5 1.00
     Exponent=  2.2661767785D+03 Coefficients= -5.3431809926D-03
     Exponent=  3.4087010191D+02 Coefficients= -3.9890039230D-02
     Exponent=  7.7363135167D+01 Coefficients= -1.7853911985D-01
     Exponent=  2.1479644940D+01 Coefficients= -4.6427684959D-01
     Exponent=  6.6589433124D+00 Coefficients= -4.4309745172D-01
 S 1 1.00
     Exponent=  8.0975975668D-01 Coefficients=  1.0000000000D+00
 S 1 1.00
     Exponent=  2.5530772234D-01 Coefficients=  1.0000000000D+00
 P 3 1.00
     Exponent=  1.7721504317D+01 Coefficients=  4.3394573193D-02
     Exponent=  3.8635505440D+00 Coefficients=  2.3094120765D-01
     Exponent=  1.0480920883D+00 Coefficients=  5.1375311064D-01
 P 1 1.00
     Exponent=  2.7641544411D-01 Coefficients=  1.0000000000D+00
 D 1 1.00
     Exponent=  1.2000000000D+00 Coefficients=  1.0000000000D+00
 ****
 Centers:       3
 S 5 1.00
     Exponent=  9.1849303010D+03 Coefficients= -2.2294387756D-03
     Exponent=  1.3815105503D+03 Coefficients= -1.6683029937D-02
     Exponent=  3.1387147580D+02 Coefficients= -7.5262436116D-02
     Exponent=  8.8053870623D+01 Coefficients= -1.9376827038D-01
     Exponent=  2.7039914905D+01 Coefficients= -1.7718020803D-01
 S 3 1.00
     Exponent=  4.5648731303D+01 Coefficients= -1.0736062573D-01
     Exponent=  4.9664522326D+00 Coefficients=  6.5066293018D-01
     Exponent=  2.0116242047D+00 Coefficients=  5.9712155354D-01
 S 1 1.00
     Exponent=  3.5661077013D-01 Coefficients=  1.0000000000D+00
 S 1 1.00
     Exponent=  1.3507221477D-01 Coefficients=  1.0000000000D+00
 P 5 1.00
     Exponent=  2.6198233439D+02 Coefficients= -9.2729929822D-03
     Exponent=  6.1306894736D+01 Coefficients= -6.6547669241D-02
     Exponent=  1.9103729887D+01 Coefficients= -2.4828595903D-01
     Exponent=  6.6567720378D+00 Coefficients= -4.8703847402D-01
     Exponent=  2.3959635161D+00 Coefficients= -3.9337850312D-01
 P 1 1.00
     Exponent=  6.1776161679D-01 Coefficients=  1.0000000000D+00
 P 1 1.00
     Exponent=  1.6993376871D-01 Coefficients=  1.0000000000D+00
 D 1 1.00
     Exponent=  5.5000000000D-01 Coefficients=  1.0000000000D+00
 D 1 1.00
     Exponent=  2.9940000000D+00 Coefficients=  1.0000000000D+00
 ****
 Ernie: Thresh=  0.10000D-02 Tol=  0.10000D-05 Strict=F.
 There are    55 symmetry adapted cartesian basis functions of A'  symmetry.
 There are    21 symmetry adapted cartesian basis functions of A"  symmetry.
 There are    50 symmetry adapted basis functions of A'  symmetry.
 There are    21 symmetry adapted basis functions of A"  symmetry.
    71 basis functions,   130 primitive gaussians,    76 cartesian basis functions
    20 alpha electrons       20 beta electrons
       nuclear repulsion energy       161.2948246114 Hartrees.
 IExCor= 1009 DFT=T Ex+Corr=PBE1PBE ExCW=0 ScaHFX=  0.250000
 ScaDFX=  0.750000  0.750000  1.000000  1.000000 ScalE2=  1.000000  1.000000
 IRadAn=      0 IRanWt=     -1 IRanGd=            0 ICorTp=0 IEmpDi=  4
 NAtoms=    7 NActive=    7 NUniq=    6 SFac= 1.36D+00 NAtFMM=   60 NAOKFM=F Big=F
 Integral buffers will be    131072 words long.
 Raffenetti 2 integral format.
 Two-electron integral symmetry is turned on.
 ------------------------------------------------------------------------------
 Polarizable Continuum Model (PCM)
 =================================
 Model                : PCM (using non-symmetric T matrix).
 Atomic radii         : UFF (Universal Force Field).
 Polarization charges : Total charges.
 Charge compensation  : None.
 Solution method      : On-the-fly selection.
 Cavity type          : Scaled VdW (van der Waals Surface) (Alpha=1.100).
 Cavity algorithm     : GePol (No added spheres)
                        Default sphere list used, NSphG=    7.
                        Lebedev-Laikov grids with approx.  5.0 points / Ang**2.
                        Smoothing algorithm: Karplus/York (Gamma=1.0000).
                        Polarization charges: spherical gaussians, with
                                              point-specific exponents (IZeta= 3).
                        Self-potential: point-specific (ISelfS= 7).
                        Self-field    : sphere-specific E.n sum rule (ISelfD= 2).
 1st derivatives      : Analytical E(r).r(x)/FMM algorithm (CHGder, D1EAlg=3).
                        Cavity 1st derivative terms included.
 Solvent              : DiethylEther, Eps=   4.240000 Eps(inf)=   1.829527
 ------------------------------------------------------------------------------
 Spheres list:
 ISph  on   Nord     Re0    Alpha      Xe            Ye            Ze
    1   O      1    1.7500  1.100     -1.658165     -1.029426      0.000000
    2   N      2    1.8300  1.100     -0.277874     -0.795340      0.000000
    3   S      3    2.0175  1.100      0.000000      0.805725      0.000000
    4   C      4    1.9255  1.100      1.578363      0.147798      0.000000
    5   H      5    1.4430  1.100      2.308453      0.955814      0.000000
    6   H      6    1.4430  1.100      1.715903     -0.465709      0.889165
    7   H      7    1.4430  1.100      1.715903     -0.465709     -0.889165
 ------------------------------------------------------------------------------
 GePol: Number of generator spheres                  =       7
 GePol: Total number of spheres                      =       7
 GePol: Number of exposed spheres                    =       7 (100.00%)
 GePol: Number of points                             =     858
 GePol: Average weight of points                     =       0.14
 GePol: Minimum weight of points                     =   0.22D-07
 GePol: Maximum weight of points                     =    0.20551
 GePol: Number of points with low weight             =      23
 GePol: Fraction of low-weight points (<1% of avg)   =       2.68%
 GePol: Cavity surface area                          =    117.077 Ang**2
 GePol: Cavity volume                                =    102.724 Ang**3
 Leave Link  301 at Wed Oct 14 11:16:28 2015, MaxMem=    33554432 cpu:         1.9
 (Enter /group/hpc-share/gaussian/2009D/g09/l302.exe)
 NPDir=0 NMtPBC=     1 NCelOv=     1 NCel=       1 NClECP=     1 NCelD=      1
         NCelK=      1 NCelE2=     1 NClLst=     1 CellRange=     0.0.
 One-electron integrals computed using PRISM.
 One-electron integral symmetry used in STVInt
 NBasis=    71 RedAO= T EigKep=  7.74D-03  NBF=    50    21
 NBsUse=    71 1.00D-06 EigRej= -1.00D+00 NBFU=    50    21
 Precomputing XC quadrature grid using
 IXCGrd= 4 IRadAn=           0 IRanWt=          -1 IRanGd=           0 AccXCQ= 0.00D+00.
 Generated NRdTot=       0 NPtTot=           0 NUsed=           0 NTot=          32
 NSgBfM=    76    76    76    76    76 MxSgAt=     7 MxSgA2=     7.
 Leave Link  302 at Wed Oct 14 11:16:29 2015, MaxMem=    33554432 cpu:         1.4
 (Enter /group/hpc-share/gaussian/2009D/g09/l303.exe)
 DipDrv:  MaxL=1.
 Leave Link  303 at Wed Oct 14 11:16:29 2015, MaxMem=    33554432 cpu:         0.2
 (Enter /group/hpc-share/gaussian/2009D/g09/l401.exe)
 ExpMin= 1.22D-01 ExpMax= 9.18D+03 ExpMxC= 1.38D+03 IAcc=1 IRadAn=         1 AccDes= 0.00D+00
 Harris functional with IExCor= 1009 and IRadAn=       1 diagonalized for initial guess.
 HarFok:  IExCor= 1009 AccDes= 0.00D+00 IRadAn=         1 IDoV= 1 UseB2=F ITyADJ=14
 ICtDFT=  3500011 ScaDFX=  1.000000  1.000000  1.000000  1.000000
 FoFCou: FMM=F IPFlag=           0 FMFlag=      100000 FMFlg1=           0
         NFxFlg=           0 DoJE=T BraDBF=F KetDBF=T FulRan=T
         wScrn=  0.000000 ICntrl=     500 IOpCl=  0 I1Cent=   200000004 NGrid=           0
         NMat0=    1 NMatS0=      1 NMatT0=    0 NMatD0=    1 NMtDS0=    0 NMtDT0=    0
 Petite list used in FoFCou.
 Harris En= -567.344104094325    
 JPrj=0 DoOrth=F DoCkMO=F.
 Initial guess orbital symmetries:
       Occupied  (A') (A') (A') (A') (A') (A') (A') (A") (A') (A')
                 (A') (A') (A') (A") (A') (A') (A") (A') (A") (A')
       Virtual   (A") (A') (A') (A') (A") (A') (A') (A') (A") (A')
                 (A') (A") (A') (A') (A") (A') (A") (A') (A') (A')
                 (A") (A') (A") (A') (A') (A') (A") (A') (A') (A')
                 (A') (A") (A') (A") (A') (A") (A') (A') (A") (A')
                 (A') (A") (A') (A") (A') (A') (A") (A") (A') (A')
                 (A')
 The electronic state of the initial guess is 1-A'.
 Leave Link  401 at Wed Oct 14 11:16:29 2015, MaxMem=    33554432 cpu:         1.7
 (Enter /group/hpc-share/gaussian/2009D/g09/l502.exe)
 Closed shell SCF:
 Using DIIS extrapolation, IDIIS=  1040.
 Integral symmetry usage will be decided dynamically.
 Keep R1 ints in memory in symmetry-blocked form, NReq=7065810.
 IVT=       37168 IEndB=       37168 NGot=    33554432 MDV=    31824708
 LenX=    31824708 LenY=    31818491
 Requested convergence on RMS density matrix=1.00D-08 within 128 cycles.
 Requested convergence on MAX density matrix=1.00D-06.
 Requested convergence on             energy=1.00D-06.
 No special actions if energy rises.
 FoFCou: FMM=F IPFlag=           0 FMFlag=           0 FMFlg1=           0
         NFxFlg=           0 DoJE=F BraDBF=F KetDBF=F FulRan=T
         wScrn=  0.000000 ICntrl=     600 IOpCl=  0 I1Cent=           0 NGrid=           0
         NMat0=    1 NMatS0=   2556 NMatT0=    0 NMatD0=    1 NMtDS0=    0 NMtDT0=    0
 Petite list used in FoFCou.

 Cycle   1  Pass 1  IDiag  1:
 Inv3:  Mode=1 IEnd=     2208492.
 Iteration    1 A*A^-1 deviation from unit magnitude is 7.11D-15 for     71.
 Iteration    1 A*A^-1 deviation from orthogonality  is 4.72D-15 for    571     38.
 Iteration    1 A^-1*A deviation from unit magnitude is 5.11D-15 for    502.
 Iteration    1 A^-1*A deviation from orthogonality  is 9.06D-15 for    696    572.
 E= -567.127565540655    
 DIIS: error= 4.58D-02 at cycle   1 NSaved=   1.
 NSaved= 1 IEnMin= 1 EnMin= -567.127565540655     IErMin= 1 ErrMin= 4.58D-02
 ErrMax= 4.58D-02  0.00D+00 EMaxC= 1.00D-01 BMatC= 1.97D-01 BMatP= 1.97D-01
 IDIUse=3 WtCom= 5.42D-01 WtEn= 4.58D-01
 Coeff-Com:  0.100D+01
 Coeff-En:   0.100D+01
 Coeff:      0.100D+01
 Gap=     0.010 Goal=   None    Shift=    0.000
 GapD=    0.010 DampG=0.250 DampE=0.500 DampFc=0.2500 IDamp=-1.
 Damping current iteration by 2.50D-01
 RMSDP=2.75D-02 MaxDP=4.01D-01              OVMax= 7.25D-01

 Cycle   2  Pass 1  IDiag  1:
 E= -567.134497425596     Delta-E=       -0.006931884941 Rises=F Damp=T
 DIIS: error= 1.44D-02 at cycle   2 NSaved=   2.
 NSaved= 2 IEnMin= 2 EnMin= -567.134497425596     IErMin= 2 ErrMin= 1.44D-02
 ErrMax= 1.44D-02  0.00D+00 EMaxC= 1.00D-01 BMatC= 2.99D-02 BMatP= 1.97D-01
 IDIUse=3 WtCom= 8.56D-01 WtEn= 1.44D-01
 Coeff-Com:  0.508D-01 0.949D+00
 Coeff-En:   0.478D+00 0.522D+00
 Coeff:      0.112D+00 0.888D+00
 Gap=     0.035 Goal=   None    Shift=    0.000
 RMSDP=6.52D-03 MaxDP=9.41D-02 DE=-6.93D-03 OVMax= 3.83D-01

 Cycle   3  Pass 1  IDiag  1:
 E= -567.248707645028     Delta-E=       -0.114210219431 Rises=F Damp=F
 DIIS: error= 3.49D-02 at cycle   3 NSaved=   3.
 NSaved= 3 IEnMin= 3 EnMin= -567.248707645028     IErMin= 2 ErrMin= 1.44D-02
 ErrMax= 3.49D-02  0.00D+00 EMaxC= 1.00D-01 BMatC= 8.79D-02 BMatP= 2.99D-02
 IDIUse=2 WtCom= 0.00D+00 WtEn= 1.00D+00
 EnCoef did     3 forward-backward iterations
 Coeff-En:   0.799D-01 0.269D-01 0.893D+00
 Coeff:      0.799D-01 0.269D-01 0.893D+00
 Gap=     0.093 Goal=   None    Shift=    0.000
 RMSDP=1.14D-02 MaxDP=2.39D-01 DE=-1.14D-01 OVMax= 4.46D-01

 Cycle   4  Pass 1  IDiag  1:
 E= -566.746711872308     Delta-E=        0.501995772719 Rises=F Damp=F
 DIIS: error= 1.14D-01 at cycle   4 NSaved=   4.
 NSaved= 4 IEnMin= 3 EnMin= -567.248707645028     IErMin= 2 ErrMin= 1.44D-02
 ErrMax= 1.14D-01  0.00D+00 EMaxC= 1.00D-01 BMatC= 6.59D-01 BMatP= 2.99D-02
 IDIUse=2 WtCom= 0.00D+00 WtEn= 1.00D+00
 EnCoef did     2 forward-backward iterations
 Coeff-En:   0.372D-01 0.000D+00 0.783D+00 0.179D+00
 Coeff:      0.372D-01 0.000D+00 0.783D+00 0.179D+00
 Gap=     0.112 Goal=   None    Shift=    0.000
 RMSDP=6.67D-03 MaxDP=1.40D-01 DE= 5.02D-01 OVMax= 2.78D-01

 Cycle   5  Pass 1  IDiag  1:
 E= -567.287138109454     Delta-E=       -0.540426237146 Rises=F Damp=F
 DIIS: error= 2.96D-02 at cycle   5 NSaved=   5.
 NSaved= 5 IEnMin= 5 EnMin= -567.287138109454     IErMin= 2 ErrMin= 1.44D-02
 ErrMax= 2.96D-02  0.00D+00 EMaxC= 1.00D-01 BMatC= 5.10D-02 BMatP= 2.99D-02
 IDIUse=2 WtCom= 0.00D+00 WtEn= 1.00D+00
 Coeff-En:   0.000D+00 0.000D+00 0.385D+00 0.000D+00 0.615D+00
 Coeff:      0.000D+00 0.000D+00 0.385D+00 0.000D+00 0.615D+00
 Gap=     0.155 Goal=   None    Shift=    0.000
 RMSDP=2.89D-03 MaxDP=5.26D-02 DE=-5.40D-01 OVMax= 8.83D-02

 Cycle   6  Pass 1  IDiag  1:
 E= -567.327183860769     Delta-E=       -0.040045751315 Rises=F Damp=F
 DIIS: error= 9.55D-03 at cycle   6 NSaved=   6.
 NSaved= 6 IEnMin= 6 EnMin= -567.327183860769     IErMin= 6 ErrMin= 9.55D-03
 ErrMax= 9.55D-03  0.00D+00 EMaxC= 1.00D-01 BMatC= 4.26D-03 BMatP= 2.99D-02
 IDIUse=3 WtCom= 9.05D-01 WtEn= 9.55D-02
 Coeff-Com: -0.320D-01 0.206D-01 0.183D+00-0.240D-01 0.413D+00 0.439D+00
 Coeff-En:   0.000D+00 0.000D+00 0.000D+00 0.000D+00 0.951D-01 0.905D+00
 Coeff:     -0.290D-01 0.186D-01 0.165D+00-0.217D-01 0.383D+00 0.484D+00
 Gap=     0.147 Goal=   None    Shift=    0.000
 RMSDP=7.96D-04 MaxDP=1.70D-02 DE=-4.00D-02 OVMax= 2.71D-02

 Cycle   7  Pass 1  IDiag  1:
 E= -567.330353142821     Delta-E=       -0.003169282052 Rises=F Damp=F
 DIIS: error= 2.74D-03 at cycle   7 NSaved=   7.
 NSaved= 7 IEnMin= 7 EnMin= -567.330353142821     IErMin= 7 ErrMin= 2.74D-03
 ErrMax= 2.74D-03  0.00D+00 EMaxC= 1.00D-01 BMatC= 3.93D-04 BMatP= 4.26D-03
 IDIUse=3 WtCom= 9.73D-01 WtEn= 2.74D-02
 Coeff-Com: -0.145D-01 0.681D-02 0.223D-01-0.101D-01 0.116D+00 0.361D+00
 Coeff-Com:  0.519D+00
 Coeff-En:   0.000D+00 0.000D+00 0.000D+00 0.000D+00 0.000D+00 0.125D+00
 Coeff-En:   0.875D+00
 Coeff:     -0.141D-01 0.662D-02 0.217D-01-0.982D-02 0.113D+00 0.354D+00
 Coeff:      0.529D+00
 Gap=     0.149 Goal=   None    Shift=    0.000
 RMSDP=1.86D-04 MaxDP=4.25D-03 DE=-3.17D-03 OVMax= 6.98D-03

 Cycle   8  Pass 1  IDiag  1:
 E= -567.330676807842     Delta-E=       -0.000323665021 Rises=F Damp=F
 DIIS: error= 1.17D-04 at cycle   8 NSaved=   8.
 NSaved= 8 IEnMin= 8 EnMin= -567.330676807842     IErMin= 8 ErrMin= 1.17D-04
 ErrMax= 1.17D-04  0.00D+00 EMaxC= 1.00D-01 BMatC= 2.60D-06 BMatP= 3.93D-04
 IDIUse=3 WtCom= 9.99D-01 WtEn= 1.17D-03
 Coeff-Com:  0.174D-02-0.421D-02-0.566D-02-0.256D-03-0.339D-02 0.425D-01
 Coeff-Com:  0.124D+00 0.845D+00
 Coeff-En:   0.000D+00 0.000D+00 0.000D+00 0.000D+00 0.000D+00 0.000D+00
 Coeff-En:   0.000D+00 0.100D+01
 Coeff:      0.174D-02-0.420D-02-0.565D-02-0.256D-03-0.339D-02 0.425D-01
 Coeff:      0.124D+00 0.845D+00
 Gap=     0.149 Goal=   None    Shift=    0.000
 RMSDP=3.70D-05 MaxDP=4.66D-04 DE=-3.24D-04 OVMax= 1.09D-03

 Cycle   9  Pass 1  IDiag  1:
 E= -567.330678515784     Delta-E=       -0.000001707942 Rises=F Damp=F
 DIIS: error= 1.57D-04 at cycle   9 NSaved=   9.
 NSaved= 9 IEnMin= 9 EnMin= -567.330678515784     IErMin= 8 ErrMin= 1.17D-04
 ErrMax= 1.57D-04  0.00D+00 EMaxC= 1.00D-01 BMatC= 1.52D-06 BMatP= 2.60D-06
 IDIUse=3 WtCom= 9.99D-01 WtEn= 1.17D-03
 Coeff-Com:  0.257D-02-0.311D-02-0.846D-03-0.666D-04-0.427D-02-0.542D-02
 Coeff-Com:  0.103D-01 0.137D+00 0.864D+00
 Coeff-En:   0.000D+00 0.000D+00 0.000D+00 0.000D+00 0.000D+00 0.000D+00
 Coeff-En:   0.000D+00 0.000D+00 0.100D+01
 Coeff:      0.257D-02-0.311D-02-0.845D-03-0.665D-04-0.426D-02-0.541D-02
 Coeff:      0.103D-01 0.137D+00 0.864D+00
 Gap=     0.150 Goal=   None    Shift=    0.000
 RMSDP=1.13D-05 MaxDP=1.57D-04 DE=-1.71D-06 OVMax= 3.23D-04

 Cycle  10  Pass 1  IDiag  1:
 E= -567.330679548003     Delta-E=       -0.000001032218 Rises=F Damp=F
 DIIS: error= 8.96D-05 at cycle  10 NSaved=  10.
 NSaved=10 IEnMin=10 EnMin= -567.330679548003     IErMin=10 ErrMin= 8.96D-05
 ErrMax= 8.96D-05  0.00D+00 EMaxC= 1.00D-01 BMatC= 4.26D-07 BMatP= 1.52D-06
 IDIUse=1 WtCom= 1.00D+00 WtEn= 0.00D+00
 Coeff-Com:  0.468D-03-0.488D-03 0.846D-03-0.330D-03 0.162D-02 0.443D-02
 Coeff-Com:  0.462D-02-0.209D-01-0.183D+00 0.119D+01
 Coeff:      0.468D-03-0.488D-03 0.846D-03-0.330D-03 0.162D-02 0.443D-02
 Coeff:      0.462D-02-0.209D-01-0.183D+00 0.119D+01
 Gap=     0.150 Goal=   None    Shift=    0.000
 RMSDP=6.57D-06 MaxDP=1.41D-04 DE=-1.03D-06 OVMax= 2.53D-04

 Cycle  11  Pass 1  IDiag  1:
 E= -567.330679925454     Delta-E=       -0.000000377452 Rises=F Damp=F
 DIIS: error= 1.88D-05 at cycle  11 NSaved=  11.
 NSaved=11 IEnMin=11 EnMin= -567.330679925454     IErMin=11 ErrMin= 1.88D-05
 ErrMax= 1.88D-05  0.00D+00 EMaxC= 1.00D-01 BMatC= 1.50D-08 BMatP= 4.26D-07
 IDIUse=1 WtCom= 1.00D+00 WtEn= 0.00D+00
 Coeff-Com: -0.389D-04 0.273D-04-0.848D-04-0.806D-06 0.104D-03 0.246D-02
 Coeff-Com:  0.237D-02 0.906D-02-0.113D+00 0.998D-01 0.100D+01
 Coeff:     -0.389D-04 0.273D-04-0.848D-04-0.806D-06 0.104D-03 0.246D-02
 Coeff:      0.237D-02 0.906D-02-0.113D+00 0.998D-01 0.100D+01
 Gap=     0.150 Goal=   None    Shift=    0.000
 RMSDP=1.51D-06 MaxDP=3.93D-05 DE=-3.77D-07 OVMax= 6.50D-05

 Cycle  12  Pass 1  IDiag  1:
 E= -567.330679938501     Delta-E=       -0.000000013046 Rises=F Damp=F
 DIIS: error= 1.89D-06 at cycle  12 NSaved=  12.
 NSaved=12 IEnMin=12 EnMin= -567.330679938501     IErMin=12 ErrMin= 1.89D-06
 ErrMax= 1.89D-06  0.00D+00 EMaxC= 1.00D-01 BMatC= 2.49D-10 BMatP= 1.50D-08
 IDIUse=1 WtCom= 1.00D+00 WtEn= 0.00D+00
 Coeff-Com: -0.115D-04 0.167D-04-0.379D-04 0.287D-05-0.292D-04 0.366D-03
 Coeff-Com:  0.456D-03 0.377D-02-0.151D-01 0.911D-02 0.203D+00 0.798D+00
 Coeff:     -0.115D-04 0.167D-04-0.379D-04 0.287D-05-0.292D-04 0.366D-03
 Coeff:      0.456D-03 0.377D-02-0.151D-01 0.911D-02 0.203D+00 0.798D+00
 Gap=     0.150 Goal=   None    Shift=    0.000
 RMSDP=1.52D-07 MaxDP=2.39D-06 DE=-1.30D-08 OVMax= 4.07D-06

 Cycle  13  Pass 1  IDiag  1:
 E= -567.330679938685     Delta-E=       -0.000000000184 Rises=F Damp=F
 DIIS: error= 7.29D-07 at cycle  13 NSaved=  13.
 NSaved=13 IEnMin=13 EnMin= -567.330679938685     IErMin=13 ErrMin= 7.29D-07
 ErrMax= 7.29D-07  0.00D+00 EMaxC= 1.00D-01 BMatC= 2.91D-11 BMatP= 2.49D-10
 IDIUse=1 WtCom= 1.00D+00 WtEn= 0.00D+00
 Coeff-Com: -0.251D-05 0.289D-05-0.922D-05 0.297D-05-0.161D-04-0.158D-04
 Coeff-Com: -0.160D-04 0.254D-03-0.749D-03 0.307D-02 0.205D-01 0.185D+00
 Coeff-Com:  0.792D+00
 Coeff:     -0.251D-05 0.289D-05-0.922D-05 0.297D-05-0.161D-04-0.158D-04
 Coeff:     -0.160D-04 0.254D-03-0.749D-03 0.307D-02 0.205D-01 0.185D+00
 Coeff:      0.792D+00
 Gap=     0.150 Goal=   None    Shift=    0.000
 RMSDP=5.60D-08 MaxDP=8.91D-07 DE=-1.84D-10 OVMax= 2.21D-06

 Cycle  14  Pass 1  IDiag  1:
 E= -567.330679938714     Delta-E=       -0.000000000029 Rises=F Damp=F
 DIIS: error= 1.93D-07 at cycle  14 NSaved=  14.
 NSaved=14 IEnMin=14 EnMin= -567.330679938714     IErMin=14 ErrMin= 1.93D-07
 ErrMax= 1.93D-07  0.00D+00 EMaxC= 1.00D-01 BMatC= 2.25D-12 BMatP= 2.91D-11
 IDIUse=1 WtCom= 1.00D+00 WtEn= 0.00D+00
 Coeff-Com: -0.992D-07 0.221D-06 0.113D-05 0.314D-06-0.114D-05-0.428D-04
 Coeff-Com: -0.380D-04-0.284D-03 0.135D-02 0.363D-03-0.141D-01-0.346D-01
 Coeff-Com:  0.163D+00 0.884D+00
 Coeff:     -0.992D-07 0.221D-06 0.113D-05 0.314D-06-0.114D-05-0.428D-04
 Coeff:     -0.380D-04-0.284D-03 0.135D-02 0.363D-03-0.141D-01-0.346D-01
 Coeff:      0.163D+00 0.884D+00
 Gap=     0.150 Goal=   None    Shift=    0.000
 RMSDP=1.54D-08 MaxDP=3.13D-07 DE=-2.90D-11 OVMax= 5.93D-07

 Cycle  15  Pass 1  IDiag  1:
 E= -567.330679938717     Delta-E=       -0.000000000003 Rises=F Damp=F
 DIIS: error= 1.26D-08 at cycle  15 NSaved=  15.
 NSaved=15 IEnMin=15 EnMin= -567.330679938717     IErMin=15 ErrMin= 1.26D-08
 ErrMax= 1.26D-08  0.00D+00 EMaxC= 1.00D-01 BMatC= 1.38D-14 BMatP= 2.25D-12
 IDIUse=1 WtCom= 1.00D+00 WtEn= 0.00D+00
 Coeff-Com: -0.551D-07 0.942D-07 0.288D-06 0.163D-07 0.126D-06-0.679D-05
 Coeff-Com: -0.559D-05-0.694D-04 0.250D-03 0.711D-04-0.290D-02-0.114D-01
 Coeff-Com:  0.153D-01 0.158D+00 0.840D+00
 Coeff:     -0.551D-07 0.942D-07 0.288D-06 0.163D-07 0.126D-06-0.679D-05
 Coeff:     -0.559D-05-0.694D-04 0.250D-03 0.711D-04-0.290D-02-0.114D-01
 Coeff:      0.153D-01 0.158D+00 0.840D+00
 Gap=     0.150 Goal=   None    Shift=    0.000
 RMSDP=1.10D-09 MaxDP=1.66D-08 DE=-3.07D-12 OVMax= 3.10D-08

 Error on total polarization charges =  0.00378
 SCF Done:  E(RPBE1PBE) =  -567.330679939     A.U. after   15 cycles
            NFock= 15  Conv=0.11D-08     -V/T= 2.0028
 KE= 5.657622441474D+02 PE=-1.666126602130D+03 EE= 3.717388534325D+02
 Leave Link  502 at Wed Oct 14 11:16:32 2015, MaxMem=    33554432 cpu:        25.2
 (Enter /group/hpc-share/gaussian/2009D/g09/l601.exe)
 Copying SCF densities to generalized density rwf, IOpCl= 0 IROHF=0.

 **********************************************************************

            Population analysis using the SCF density.

 **********************************************************************

 Orbital symmetries:
       Occupied  (A') (A') (A') (A') (A') (A') (A') (A") (A') (A')
                 (A') (A') (A') (A") (A') (A') (A") (A') (A") (A')
       Virtual   (A") (A') (A') (A') (A") (A') (A') (A') (A") (A')
                 (A') (A") (A') (A") (A') (A') (A") (A') (A') (A')
                 (A") (A') (A") (A') (A') (A') (A") (A') (A') (A')
                 (A') (A") (A') (A") (A') (A") (A') (A") (A') (A')
                 (A') (A") (A') (A") (A') (A') (A") (A') (A") (A')
                 (A')
 The electronic state is 1-A'.
 Alpha  occ. eigenvalues --  -89.06443 -19.24091 -14.51415 -10.25485  -8.06904
 Alpha  occ. eigenvalues --   -6.01006  -6.00670  -6.00265  -1.07408  -0.91257
 Alpha  occ. eigenvalues --   -0.72388  -0.63114  -0.50315  -0.49144  -0.46489
 Alpha  occ. eigenvalues --   -0.41635  -0.40675  -0.36101  -0.28375  -0.26749
 Alpha virt. eigenvalues --   -0.11796  -0.01142   0.07889   0.10798   0.13482
 Alpha virt. eigenvalues --    0.15213   0.18989   0.34296   0.39287   0.41793
 Alpha virt. eigenvalues --    0.48697   0.53881   0.58462   0.63886   0.63990
 Alpha virt. eigenvalues --    0.68102   0.69239   0.69823   0.70600   0.72722
 Alpha virt. eigenvalues --    0.74525   0.83524   0.83885   0.88745   0.94254
 Alpha virt. eigenvalues --    0.97085   1.00949   1.03752   1.10802   1.23579
 Alpha virt. eigenvalues --    1.37162   1.71201   1.78908   1.94672   2.01348
 Alpha virt. eigenvalues --    2.13096   2.13373   2.16640   2.17866   2.30505
 Alpha virt. eigenvalues --    2.58026   2.65175   2.66838   2.94174   2.97396
 Alpha virt. eigenvalues --    3.57502   4.61006   4.65266   4.65599   4.81608
 Alpha virt. eigenvalues --    4.92430
          Condensed to atoms (all electrons):
               1          2          3          4          5          6
     1  O    8.190728   0.202857  -0.083657   0.011301  -0.000266   0.000466
     2  N    0.202857   6.869830   0.166700  -0.122770   0.012750  -0.004333
     3  S   -0.083657   0.166700  15.448276   0.270805  -0.030430  -0.031545
     4  C    0.011301  -0.122770   0.270805   5.100100   0.353027   0.389290
     5  H   -0.000266   0.012750  -0.030430   0.353027   0.529373  -0.014458
     6  H    0.000466  -0.004333  -0.031545   0.389290  -0.014458   0.486000
     7  H    0.000466  -0.004333  -0.031545   0.389290  -0.014458  -0.014313
               7
     1  O    0.000466
     2  N   -0.004333
     3  S   -0.031545
     4  C    0.389290
     5  H   -0.014458
     6  H   -0.014313
     7  H    0.486000
 Mulliken charges:
               1
     1  O   -0.321895
     2  N   -0.120701
     3  S    0.291395
     4  C   -0.391045
     5  H    0.164463
     6  H    0.188891
     7  H    0.188891
 Sum of Mulliken charges =   0.00000
 Mulliken charges with hydrogens summed into heavy atoms:
               1
     1  O   -0.321895
     2  N   -0.120701
     3  S    0.291395
     4  C    0.151201
 Electronic spatial extent (au):  <R**2>=            337.4196
 Charge=              0.0000 electrons
 Dipole moment (field-independent basis, Debye):
    X=              3.5795    Y=              2.5753    Z=              0.0000  Tot=              4.4097
 Quadrupole moment (field-independent basis, Debye-Ang):
   XX=            -32.1100   YY=            -31.7799   ZZ=            -29.4512
   XY=             -2.1196   XZ=              0.0000   YZ=              0.0000
 Traceless Quadrupole moment (field-independent basis, Debye-Ang):
   XX=             -0.9963   YY=             -0.6662   ZZ=              1.6625
   XY=             -2.1196   XZ=              0.0000   YZ=              0.0000
 Octapole moment (field-independent basis, Debye-Ang**2):
  XXX=              5.4218  YYY=              4.4074  ZZZ=              0.0000  XYY=              3.4527
  XXY=              5.1667  XXZ=              0.0000  XZZ=             -0.9526  YZZ=             -2.2092
  YYZ=              0.0000  XYZ=              0.0000
 Hexadecapole moment (field-independent basis, Debye-Ang**3):
 XXXX=           -254.5346 YYYY=           -141.1932 ZZZZ=            -34.9691 XXXY=            -42.2295
 XXXZ=              0.0000 YYYX=            -38.1068 YYYZ=              0.0000 ZZZX=              0.0000
 ZZZY=              0.0000 XXYY=            -66.9205 XXZZ=            -45.0909 YYZZ=            -29.1380
 XXYZ=              0.0000 YYXZ=              0.0000 ZZXY=            -12.8152
 N-N= 1.612948246114D+02 E-N=-1.666126602275D+03  KE= 5.657622441474D+02
 Symmetry A'   KE= 5.209944290745D+02
 Symmetry A"   KE= 4.476781507295D+01
 No NMR shielding tensors so no spin-rotation constants.
 Leave Link  601 at Wed Oct 14 11:16:33 2015, MaxMem=    33554432 cpu:         1.4
 (Enter /group/hpc-share/gaussian/2009D/g09/l701.exe)
 Compute integral first derivatives.
 ... and contract with generalized density number  0.
 D1PCM: PCM CHGder 1st derivatives, ID1Alg=3 FixD1E=F DoIter=F DoCFld=F I1PDM=0.
 GePol: Maximum number of non-zero 1st derivatives   =     278
 Leave Link  701 at Wed Oct 14 11:16:33 2015, MaxMem=    33554432 cpu:         3.7
 (Enter /group/hpc-share/gaussian/2009D/g09/l702.exe)
 L702 exits ... SP integral derivatives will be done elsewhere.
 Leave Link  702 at Wed Oct 14 11:16:33 2015, MaxMem=    33554432 cpu:         0.1
 (Enter /group/hpc-share/gaussian/2009D/g09/l703.exe)
 Compute integral first derivatives, UseDBF=F ICtDFT=           0.
 Integral derivatives from FoFJK, PRISM(SPDF).
 Calling FoFJK, ICntrl=      2127 FMM=F ISym2X=1 I1Cent= 0 IOpClX= 0 NMat=1 NMatS=1 NMatT=0.
 FoFJK:  IHMeth= 1 ICntrl=    2127 DoSepK=F KAlg= 0 I1Cent=   0 FoldK=F
 IRaf=         0 NMat=   1 IRICut=       1 DoRegI=T DoRafI=F ISym2E= 1.
 FoFCou: FMM=F IPFlag=           0 FMFlag=      100000 FMFlg1=         800
         NFxFlg=           0 DoJE=F BraDBF=F KetDBF=F FulRan=T
         wScrn=  0.000000 ICntrl=    2127 IOpCl=  0 I1Cent=           0 NGrid=           0
         NMat0=    1 NMatS0=      1 NMatT0=    0 NMatD0=    1 NMtDS0=    0 NMtDT0=    0
 Petite list used in FoFCou.
 Leave Link  703 at Wed Oct 14 11:16:34 2015, MaxMem=    33554432 cpu:         2.4
 (Enter /group/hpc-share/gaussian/2009D/g09/l716.exe)
 Dipole        = 1.40828601D+00 1.01321165D+00 0.00000000D+00
 ***** Axes restored to original set *****
 -------------------------------------------------------------------
 Center     Atomic                   Forces (Hartrees/Bohr)
 Number     Number              X              Y              Z
 -------------------------------------------------------------------
      1        8          -0.014608789    0.000000000    0.135096974
      2        7          -0.003005410    0.000000000   -0.230714612
      3       16           0.004011392    0.000000000   -0.009749323
      4        6           0.012644937    0.000000000    0.080343970
      5        1           0.003250074    0.000000000    0.013681062
      6        1          -0.001146101    0.004956746    0.005670965
      7        1          -0.001146101   -0.004956746    0.005670965
 -------------------------------------------------------------------
 Cartesian Forces:  Max     0.230714612 RMS     0.061234476
 Leave Link  716 at Wed Oct 14 11:16:34 2015, MaxMem=    33554432 cpu:         0.1
 (Enter /group/hpc-share/gaussian/2009D/g09/l103.exe)

 GradGradGradGradGradGradGradGradGradGradGradGradGradGradGradGradGradGrad
 Berny optimization.
 FormGI is forming the generalized inverse of G from B-inverse, IUseBI=4.
 Internal  Forces:  Max     0.220087046 RMS     0.065671218
 Search for a local minimum.
 Step number   1 out of a maximum of   28
 All quantities printed in internal units (Hartrees-Bohrs-Radians)
 RMS Force = .65671D-01 SwitMx=.10000D-02 MixMth= 1
 Mixed Optimization -- RFO/linear search
 Second derivative matrix not updated -- first step.
 The second derivative matrix:
                          R1        R2        R3        R4        R5
           R1           0.45621
           R2           0.00000   0.46672
           R3           0.00000   0.00000   0.34713
           R4           0.00000   0.00000   0.00000   0.34928
           R5           0.00000   0.00000   0.00000   0.00000   0.34928
           R6           0.00000   0.00000   0.00000   0.00000   0.00000
           A1           0.00000   0.00000   0.00000   0.00000   0.00000
           A2           0.00000   0.00000   0.00000   0.00000   0.00000
           A3           0.00000   0.00000   0.00000   0.00000   0.00000
           A4           0.00000   0.00000   0.00000   0.00000   0.00000
           A5           0.00000   0.00000   0.00000   0.00000   0.00000
           A6           0.00000   0.00000   0.00000   0.00000   0.00000
           A7           0.00000   0.00000   0.00000   0.00000   0.00000
           A8           0.00000   0.00000   0.00000   0.00000   0.00000
           D1           0.00000   0.00000   0.00000   0.00000   0.00000
           D2           0.00000   0.00000   0.00000   0.00000   0.00000
           D3           0.00000   0.00000   0.00000   0.00000   0.00000
           D4           0.00000   0.00000   0.00000   0.00000   0.00000
                          R6        A1        A2        A3        A4
           R6           0.34928
           A1           0.00000   0.25000
           A2           0.00000   0.00000   0.25000
           A3           0.00000   0.00000   0.00000   0.16000
           A4           0.00000   0.00000   0.00000   0.00000   0.16000
           A5           0.00000   0.00000   0.00000   0.00000   0.00000
           A6           0.00000   0.00000   0.00000   0.00000   0.00000
           A7           0.00000   0.00000   0.00000   0.00000   0.00000
           A8           0.00000   0.00000   0.00000   0.00000   0.00000
           D1           0.00000   0.00000   0.00000   0.00000   0.00000
           D2           0.00000   0.00000   0.00000   0.00000   0.00000
           D3           0.00000   0.00000   0.00000   0.00000   0.00000
           D4           0.00000   0.00000   0.00000   0.00000   0.00000
                          A5        A6        A7        A8        D1
           A5           0.16000
           A6           0.00000   0.16000
           A7           0.00000   0.00000   0.16000
           A8           0.00000   0.00000   0.00000   0.16000
           D1           0.00000   0.00000   0.00000   0.00000   0.02288
           D2           0.00000   0.00000   0.00000   0.00000   0.00000
           D3           0.00000   0.00000   0.00000   0.00000   0.00000
           D4           0.00000   0.00000   0.00000   0.00000   0.00000
                          D2        D3        D4
           D2           0.01561
           D3           0.00000   0.01561
           D4           0.00000   0.00000   0.01561
 ITU=  0
     Eigenvalues ---    0.01561   0.02288   0.10446   0.10446   0.16000
     Eigenvalues ---    0.16000   0.16000   0.25000   0.25000   0.34713
     Eigenvalues ---    0.34928   0.34928   0.34928   0.45621   0.46672
 RFO step:  Lambda=-1.66826082D-01 EMin= 1.56082885D-02
 Linear search not attempted -- first point.
 Maximum step size (   0.300) exceeded in Quadratic search.
    -- Step size scaled by   0.494
 Iteration  1 RMS(Cart)=  0.16520039 RMS(Int)=  0.01698292
 Iteration  2 RMS(Cart)=  0.04773089 RMS(Int)=  0.00073499
 Iteration  3 RMS(Cart)=  0.00116497 RMS(Int)=  0.00002060
 Iteration  4 RMS(Cart)=  0.00000014 RMS(Int)=  0.00002060
 ITry= 1 IFail=0 DXMaxC= 5.00D-01 DCOld= 1.00D+10 DXMaxT= 3.00D-01 DXLimC= 3.00D+00 Rises=F
 ClnCor:  largest displacement from symmetrization is 5.76D-10 for atom     2.
 Variable       Old X    -DE/DX   Delta X   Delta X   Delta X     New X
                                 (Linear)    (Quad)   (Total)
    R1        2.64562  -0.13510   0.00000  -0.10722  -0.10722   2.53840
    R2        3.07080   0.04849   0.00000   0.03785   0.03785   3.10865
    R3        3.23143   0.08184   0.00000   0.07873   0.07873   3.31017
    R4        2.05791   0.01276   0.00000   0.01222   0.01222   2.07013
    R5        2.05791   0.00488   0.00000   0.00467   0.00467   2.06258
    R6        2.05791   0.00488   0.00000   0.00467   0.00467   2.06258
    A1        1.91063   0.03868   0.00000   0.04589   0.04589   1.95652
    A2        1.34770   0.22009   0.00000   0.26108   0.26108   1.60878
    A3        1.91063   0.00511   0.00000   0.00719   0.00717   1.91780
    A4        1.91063   0.00461   0.00000   0.00725   0.00722   1.91785
    A5        1.91063   0.00461   0.00000   0.00725   0.00722   1.91785
    A6        1.91063  -0.00706   0.00000  -0.01122  -0.01124   1.89939
    A7        1.91063  -0.00706   0.00000  -0.01122  -0.01124   1.89939
    A8        1.91063  -0.00022   0.00000   0.00075   0.00070   1.91134
    D1        3.14159   0.00000   0.00000   0.00000   0.00000   3.14159
    D2        3.14159   0.00000   0.00000   0.00000   0.00000   3.14159
    D3       -1.04720  -0.00269   0.00000  -0.00490  -0.00493  -1.05213
    D4        1.04720   0.00269   0.00000   0.00490   0.00493   1.05213
         Item               Value     Threshold  Converged?
 Maximum Force            0.220087     0.000450     NO 
 RMS     Force            0.065671     0.000300     NO 
 Maximum Displacement     0.500358     0.001800     NO 
 RMS     Displacement     0.210152     0.001200     NO 
 Predicted change in Energy=-6.960680D-02
 Lowest energy point so far.  Saving SCF results.
 GradGradGradGradGradGradGradGradGradGradGradGradGradGradGradGradGradGrad

 Leave Link  103 at Wed Oct 14 11:16:34 2015, MaxMem=    33554432 cpu:         0.4
 (Enter /group/hpc-share/gaussian/2009D/g09/l202.exe)
                          Input orientation:                          
 ---------------------------------------------------------------------
 Center     Atomic      Atomic             Coordinates (Angstroms)
 Number     Number       Type             X           Y           Z
 ---------------------------------------------------------------------
      1          8           0        0.092947    0.000000   -0.199965
      2          7           0       -0.054108    0.000000    1.135222
      3         16           0        1.393138    0.000000    1.917270
      4          6           0        0.619519    0.000000    3.488843
      5          1           0        1.379241    0.000000    4.278065
      6          1           0       -0.000939    0.891405    3.597200
      7          1           0       -0.000939   -0.891405    3.597200
 ---------------------------------------------------------------------
                    Distance matrix (angstroms):
                    1          2          3          4          5
     1  O    0.000000
     2  N    1.343261   0.000000
     3  S    2.484589   1.645029   0.000000
     4  C    3.726203   2.448123   1.751664   0.000000
     5  H    4.659110   3.454265   2.360836   1.095467   0.000000
     6  H    3.901523   2.618925   2.358012   1.091473   1.778504
     7  H    3.901523   2.618925   2.358012   1.091473   1.778504
                    6          7
     6  H    0.000000
     7  H    1.782811   0.000000
 Stoichiometry    CH3NOS
 Framework group  CS[SG(CHNOS),X(H2)]
 Deg. of freedom    10
 Full point group                 CS      NOp   2
 RotChk:  IX=0 Diff= 1.22D-01
 Largest Abelian subgroup         CS      NOp   2
 Largest concise Abelian subgroup CS      NOp   2
                         Standard orientation:                         
 ---------------------------------------------------------------------
 Center     Atomic      Atomic             Coordinates (Angstroms)
 Number     Number       Type             X           Y           Z
 ---------------------------------------------------------------------
      1          8           0       -1.722634   -1.067870    0.000000
      2          7           0       -0.393330   -0.874733    0.000000
      3         16           0        0.000000    0.722580    0.000000
      4          6           0        1.715535    0.368647    0.000000
      5          1           0        2.288554    1.302294    0.000000
      6          1           0        1.976310   -0.204682    0.891405
      7          1           0        1.976310   -0.204682   -0.891405
 ---------------------------------------------------------------------
 Rotational constants (GHZ):     20.4353182      4.0386367      3.4458422
 Leave Link  202 at Wed Oct 14 11:16:34 2015, MaxMem=    33554432 cpu:         0.0
 (Enter /group/hpc-share/gaussian/2009D/g09/l301.exe)
 Basis read from rwf:  (5D, 7F)
 No pseudopotential information found on rwf file.
 There are    55 symmetry adapted cartesian basis functions of A'  symmetry.
 There are    21 symmetry adapted cartesian basis functions of A"  symmetry.
 There are    50 symmetry adapted basis functions of A'  symmetry.
 There are    21 symmetry adapted basis functions of A"  symmetry.
    71 basis functions,   130 primitive gaussians,    76 cartesian basis functions
    20 alpha electrons       20 beta electrons
       nuclear repulsion energy       157.6043052153 Hartrees.
 IExCor= 1009 DFT=T Ex+Corr=PBE1PBE ExCW=0 ScaHFX=  0.250000
 ScaDFX=  0.750000  0.750000  1.000000  1.000000 ScalE2=  1.000000  1.000000
 IRadAn=      0 IRanWt=     -1 IRanGd=            0 ICorTp=0 IEmpDi=  4
 NAtoms=    7 NActive=    7 NUniq=    6 SFac= 1.36D+00 NAtFMM=   60 NAOKFM=F Big=F
 Integral buffers will be    131072 words long.
 Raffenetti 2 integral format.
 Two-electron integral symmetry is turned on.
 No density basis found on file   724.
 ------------------------------------------------------------------------------
 Polarizable Continuum Model (PCM)
 =================================
 Model                : PCM (using non-symmetric T matrix).
 Atomic radii         : UFF (Universal Force Field).
 Polarization charges : Total charges.
 Charge compensation  : None.
 Solution method      : On-the-fly selection.
 Cavity type          : Scaled VdW (van der Waals Surface) (Alpha=1.100).
 Cavity algorithm     : GePol (No added spheres)
                        Default sphere list used, NSphG=    7.
                        Lebedev-Laikov grids with approx.  5.0 points / Ang**2.
                        Smoothing algorithm: Karplus/York (Gamma=1.0000).
                        Polarization charges: spherical gaussians, with
                                              point-specific exponents (IZeta= 3).
                        Self-potential: point-specific (ISelfS= 7).
                        Self-field    : sphere-specific E.n sum rule (ISelfD= 2).
 1st derivatives      : Analytical E(r).r(x)/FMM algorithm (CHGder, D1EAlg=3).
                        Cavity 1st derivative terms included.
 Solvent              : DiethylEther, Eps=   4.240000 Eps(inf)=   1.829527
 ------------------------------------------------------------------------------
 Spheres list:
 ISph  on   Nord     Re0    Alpha      Xe            Ye            Ze
    1   O      1    1.7500  1.100     -1.722634     -1.067870      0.000000
    2   N      2    1.8300  1.100     -0.393330     -0.874733      0.000000
    3   S      3    2.0175  1.100      0.000000      0.722580      0.000000
    4   C      4    1.9255  1.100      1.715535      0.368647      0.000000
    5   H      5    1.4430  1.100      2.288554      1.302294      0.000000
    6   H      6    1.4430  1.100      1.976310     -0.204682      0.891405
    7   H      7    1.4430  1.100      1.976310     -0.204682     -0.891405
 ------------------------------------------------------------------------------
 GePol: Number of generator spheres                  =       7
 GePol: Total number of spheres                      =       7
 GePol: Number of exposed spheres                    =       7 (100.00%)
 GePol: Number of points                             =     879
 GePol: Average weight of points                     =       0.14
 GePol: Minimum weight of points                     =   0.36D-06
 GePol: Maximum weight of points                     =    0.20577
 GePol: Number of points with low weight             =      28
 GePol: Fraction of low-weight points (<1% of avg)   =       3.19%
 GePol: Cavity surface area                          =    119.675 Ang**2
 GePol: Cavity volume                                =    104.831 Ang**3
 Leave Link  301 at Wed Oct 14 11:16:34 2015, MaxMem=    33554432 cpu:         1.0
 (Enter /group/hpc-share/gaussian/2009D/g09/l302.exe)
 NPDir=0 NMtPBC=     1 NCelOv=     1 NCel=       1 NClECP=     1 NCelD=      1
         NCelK=      1 NCelE2=     1 NClLst=     1 CellRange=     0.0.
 One-electron integrals computed using PRISM.
 One-electron integral symmetry used in STVInt
 NBasis=    71 RedAO= T EigKep=  9.51D-03  NBF=    50    21
 NBsUse=    71 1.00D-06 EigRej= -1.00D+00 NBFU=    50    21
 Precomputing XC quadrature grid using
 IXCGrd= 4 IRadAn=           0 IRanWt=          -1 IRanGd=           0 AccXCQ= 0.00D+00.
 Generated NRdTot=       0 NPtTot=           0 NUsed=           0 NTot=          32
 NSgBfM=    76    76    76    76    76 MxSgAt=     7 MxSgA2=     7.
 Leave Link  302 at Wed Oct 14 11:16:34 2015, MaxMem=    33554432 cpu:         1.5
 (Enter /group/hpc-share/gaussian/2009D/g09/l303.exe)
 DipDrv:  MaxL=1.
 Leave Link  303 at Wed Oct 14 11:16:35 2015, MaxMem=    33554432 cpu:         0.2
 (Enter /group/hpc-share/gaussian/2009D/g09/l401.exe)
 Initial guess from the checkpoint file:  "trans-mesno.chk"
 B after Tr=     0.000000    0.000000    0.000000
         Rot=    0.999752    0.000000    0.000000   -0.022272 Ang=  -2.55 deg.
 Guess basis will be translated and rotated to current coordinates.
 JPrj=2 DoOrth=T DoCkMO=T.
 Initial guess orbital symmetries:
       Occupied  (A') (A') (A') (A') (A') (A') (A') (A") (A') (A')
                 (A') (A') (A') (A") (A') (A') (A") (A') (A") (A')
       Virtual   (A') (A') (A') (A') (A') (A') (A') (A') (A') (A')
                 (A') (A') (A') (A') (A') (A') (A') (A') (A') (A')
                 (A') (A') (A') (A') (A') (A') (A') (A') (A') (A')
                 (A') (A') (A') (A') (A") (A") (A") (A") (A") (A")
                 (A") (A") (A") (A") (A") (A") (A") (A") (A") (A")
                 (A")
 The electronic state of the initial guess is 1-A'.
 Generating alternative initial guess.
 ExpMin= 1.22D-01 ExpMax= 9.18D+03 ExpMxC= 1.38D+03 IAcc=1 IRadAn=         1 AccDes= 0.00D+00
 Harris functional with IExCor= 1009 and IRadAn=       1 diagonalized for initial guess.
 HarFok:  IExCor= 1009 AccDes= 0.00D+00 IRadAn=         1 IDoV= 1 UseB2=F ITyADJ=14
 ICtDFT=  3500011 ScaDFX=  1.000000  1.000000  1.000000  1.000000
 FoFCou: FMM=F IPFlag=           0 FMFlag=      100000 FMFlg1=           0
         NFxFlg=           0 DoJE=T BraDBF=F KetDBF=T FulRan=T
         wScrn=  0.000000 ICntrl=     500 IOpCl=  0 I1Cent=   200000004 NGrid=           0
         NMat0=    1 NMatS0=      1 NMatT0=    0 NMatD0=    1 NMtDS0=    0 NMtDT0=    0
 Petite list used in FoFCou.
 Harris En= -567.383211217242    
 Leave Link  401 at Wed Oct 14 11:16:35 2015, MaxMem=    33554432 cpu:         2.1
 (Enter /group/hpc-share/gaussian/2009D/g09/l502.exe)
 Closed shell SCF:
 Using DIIS extrapolation, IDIIS=  1040.
 Integral symmetry usage will be decided dynamically.
 Keep R1 ints in memory in symmetry-blocked form, NReq=7104744.
 IVT=       37168 IEndB=       37168 NGot=    33554432 MDV=    31824708
 LenX=    31824708 LenY=    31818491
 Requested convergence on RMS density matrix=1.00D-08 within 128 cycles.
 Requested convergence on MAX density matrix=1.00D-06.
 Requested convergence on             energy=1.00D-06.
 No special actions if energy rises.
 FoFCou: FMM=F IPFlag=           0 FMFlag=           0 FMFlg1=           0
         NFxFlg=           0 DoJE=F BraDBF=F KetDBF=F FulRan=T
         wScrn=  0.000000 ICntrl=     600 IOpCl=  0 I1Cent=           0 NGrid=           0
         NMat0=    1 NMatS0=   2556 NMatT0=    0 NMatD0=    1 NMtDS0=    0 NMtDT0=    0
 Petite list used in FoFCou.

 Cycle   1  Pass 1  IDiag  1:
 Inv3:  Mode=1 IEnd=     2317923.
 Iteration    1 A*A^-1 deviation from unit magnitude is 5.77D-15 for    652.
 Iteration    1 A*A^-1 deviation from orthogonality  is 4.27D-15 for    744      5.
 Iteration    1 A^-1*A deviation from unit magnitude is 4.66D-15 for    652.
 Iteration    1 A^-1*A deviation from orthogonality  is 3.22D-15 for    631    546.
 E= -567.360566695157    
 DIIS: error= 8.34D-03 at cycle   1 NSaved=   1.
 NSaved= 1 IEnMin= 1 EnMin= -567.360566695157     IErMin= 1 ErrMin= 8.34D-03
 ErrMax= 8.34D-03  0.00D+00 EMaxC= 1.00D-01 BMatC= 1.28D-02 BMatP= 1.28D-02
 IDIUse=3 WtCom= 9.17D-01 WtEn= 8.34D-02
 Coeff-Com:  0.100D+01
 Coeff-En:   0.100D+01
 Coeff:      0.100D+01
 Gap=     0.600 Goal=   None    Shift=    0.000
 GapD=    0.600 DampG=2.000 DampE=1.000 DampFc=2.0000 IDamp=-1.
 RMSDP=2.57D-03 MaxDP=2.17D-02              OVMax= 4.75D-02

 Cycle   2  Pass 1  IDiag  1:
 E= -567.380894473341     Delta-E=       -0.020327778184 Rises=F Damp=F
 DIIS: error= 4.52D-03 at cycle   2 NSaved=   2.
 NSaved= 2 IEnMin= 2 EnMin= -567.380894473341     IErMin= 2 ErrMin= 4.52D-03
 ErrMax= 4.52D-03  0.00D+00 EMaxC= 1.00D-01 BMatC= 1.54D-03 BMatP= 1.28D-02
 IDIUse=3 WtCom= 9.55D-01 WtEn= 4.52D-02
 Coeff-Com:  0.931D-01 0.907D+00
 Coeff-En:   0.000D+00 0.100D+01
 Coeff:      0.889D-01 0.911D+00
 Gap=     0.149 Goal=   None    Shift=    0.000
 RMSDP=1.34D-03 MaxDP=3.25D-02 DE=-2.03D-02 OVMax= 5.06D-02

 Cycle   3  Pass 1  IDiag  1:
 E= -567.375460286976     Delta-E=        0.005434186365 Rises=F Damp=F
 DIIS: error= 1.18D-02 at cycle   3 NSaved=   3.
 NSaved= 3 IEnMin= 2 EnMin= -567.380894473341     IErMin= 2 ErrMin= 4.52D-03
 ErrMax= 1.18D-02  0.00D+00 EMaxC= 1.00D-01 BMatC= 8.21D-03 BMatP= 1.54D-03
 IDIUse=2 WtCom= 0.00D+00 WtEn= 1.00D+00
 Coeff-En:   0.000D+00 0.777D+00 0.223D+00
 Coeff:      0.000D+00 0.777D+00 0.223D+00
 Gap=     0.154 Goal=   None    Shift=    0.000
 RMSDP=7.22D-04 MaxDP=1.80D-02 DE= 5.43D-03 OVMax= 2.87D-02

 Cycle   4  Pass 1  IDiag  1:
 E= -567.381848526606     Delta-E=       -0.006388239630 Rises=F Damp=F
 DIIS: error= 2.64D-03 at cycle   4 NSaved=   4.
 NSaved= 4 IEnMin= 4 EnMin= -567.381848526606     IErMin= 4 ErrMin= 2.64D-03
 ErrMax= 2.64D-03  0.00D+00 EMaxC= 1.00D-01 BMatC= 4.89D-04 BMatP= 1.54D-03
 IDIUse=3 WtCom= 9.74D-01 WtEn= 2.64D-02
 Coeff-Com: -0.211D-01 0.238D+00-0.116D+00 0.900D+00
 Coeff-En:   0.000D+00 0.267D+00 0.000D+00 0.733D+00
 Coeff:     -0.206D-01 0.238D+00-0.113D+00 0.895D+00
 Gap=     0.156 Goal=   None    Shift=    0.000
 RMSDP=2.58D-04 MaxDP=6.29D-03 DE=-6.39D-03 OVMax= 1.03D-02

 Cycle   5  Pass 1  IDiag  1:
 E= -567.382249934180     Delta-E=       -0.000401407574 Rises=F Damp=F
 DIIS: error= 1.89D-04 at cycle   5 NSaved=   5.
 NSaved= 5 IEnMin= 5 EnMin= -567.382249934180     IErMin= 5 ErrMin= 1.89D-04
 ErrMax= 1.89D-04  0.00D+00 EMaxC= 1.00D-01 BMatC= 3.56D-06 BMatP= 4.89D-04
 IDIUse=3 WtCom= 9.98D-01 WtEn= 1.89D-03
 Coeff-Com: -0.668D-02 0.642D-01-0.632D-01 0.403D+00 0.603D+00
 Coeff-En:   0.000D+00 0.000D+00 0.000D+00 0.000D+00 0.100D+01
 Coeff:     -0.666D-02 0.641D-01-0.631D-01 0.402D+00 0.604D+00
 Gap=     0.155 Goal=   None    Shift=    0.000
 RMSDP=4.02D-05 MaxDP=4.81D-04 DE=-4.01D-04 OVMax= 1.38D-03

 Cycle   6  Pass 1  IDiag  1:
 E= -567.382252783663     Delta-E=       -0.000002849483 Rises=F Damp=F
 DIIS: error= 8.99D-05 at cycle   6 NSaved=   6.
 NSaved= 6 IEnMin= 6 EnMin= -567.382252783663     IErMin= 6 ErrMin= 8.99D-05
 ErrMax= 8.99D-05  0.00D+00 EMaxC= 1.00D-01 BMatC= 8.76D-07 BMatP= 3.56D-06
 IDIUse=1 WtCom= 1.00D+00 WtEn= 0.00D+00
 Coeff-Com: -0.653D-03-0.473D-03-0.117D-01 0.669D-01 0.379D+00 0.567D+00
 Coeff:     -0.653D-03-0.473D-03-0.117D-01 0.669D-01 0.379D+00 0.567D+00
 Gap=     0.155 Goal=   None    Shift=    0.000
 RMSDP=1.62D-05 MaxDP=2.14D-04 DE=-2.85D-06 OVMax= 5.73D-04

 Cycle   7  Pass 1  IDiag  1:
 E= -567.382253664180     Delta-E=       -0.000000880516 Rises=F Damp=F
 DIIS: error= 2.33D-05 at cycle   7 NSaved=   7.
 NSaved= 7 IEnMin= 7 EnMin= -567.382253664180     IErMin= 7 ErrMin= 2.33D-05
 ErrMax= 2.33D-05  0.00D+00 EMaxC= 1.00D-01 BMatC= 5.48D-08 BMatP= 8.76D-07
 IDIUse=1 WtCom= 1.00D+00 WtEn= 0.00D+00
 Coeff-Com:  0.172D-03-0.587D-02-0.246D-02 0.100D-01 0.178D+00 0.314D+00
 Coeff-Com:  0.506D+00
 Coeff:      0.172D-03-0.587D-02-0.246D-02 0.100D-01 0.178D+00 0.314D+00
 Coeff:      0.506D+00
 Gap=     0.155 Goal=   None    Shift=    0.000
 RMSDP=3.53D-06 MaxDP=6.13D-05 DE=-8.81D-07 OVMax= 7.57D-05

 Cycle   8  Pass 1  IDiag  1:
 E= -567.382253719832     Delta-E=       -0.000000055652 Rises=F Damp=F
 DIIS: error= 2.44D-06 at cycle   8 NSaved=   8.
 NSaved= 8 IEnMin= 8 EnMin= -567.382253719832     IErMin= 8 ErrMin= 2.44D-06
 ErrMax= 2.44D-06  0.00D+00 EMaxC= 1.00D-01 BMatC= 8.90D-10 BMatP= 5.48D-08
 IDIUse=1 WtCom= 1.00D+00 WtEn= 0.00D+00
 Coeff-Com:  0.619D-04-0.107D-02 0.265D-03-0.148D-02 0.121D-01 0.200D-01
 Coeff-Com:  0.106D+00 0.864D+00
 Coeff:      0.619D-04-0.107D-02 0.265D-03-0.148D-02 0.121D-01 0.200D-01
 Coeff:      0.106D+00 0.864D+00
 Gap=     0.155 Goal=   None    Shift=    0.000
 RMSDP=5.44D-07 MaxDP=6.00D-06 DE=-5.57D-08 OVMax= 1.69D-05

 Cycle   9  Pass 1  IDiag  1:
 E= -567.382253720768     Delta-E=       -0.000000000936 Rises=F Damp=F
 DIIS: error= 9.65D-07 at cycle   9 NSaved=   9.
 NSaved= 9 IEnMin= 9 EnMin= -567.382253720768     IErMin= 9 ErrMin= 9.65D-07
 ErrMax= 9.65D-07  0.00D+00 EMaxC= 1.00D-01 BMatC= 7.59D-11 BMatP= 8.90D-10
 IDIUse=1 WtCom= 1.00D+00 WtEn= 0.00D+00
 Coeff-Com:  0.182D-05 0.967D-04 0.204D-03-0.646D-03-0.688D-02-0.120D-01
 Coeff-Com: -0.107D-01 0.137D+00 0.893D+00
 Coeff:      0.182D-05 0.967D-04 0.204D-03-0.646D-03-0.688D-02-0.120D-01
 Coeff:     -0.107D-01 0.137D+00 0.893D+00
 Gap=     0.155 Goal=   None    Shift=    0.000
 RMSDP=1.62D-07 MaxDP=1.83D-06 DE=-9.36D-10 OVMax= 4.46D-06

 Cycle  10  Pass 1  IDiag  1:
 E= -567.382253720842     Delta-E=       -0.000000000075 Rises=F Damp=F
 DIIS: error= 2.65D-07 at cycle  10 NSaved=  10.
 NSaved=10 IEnMin=10 EnMin= -567.382253720842     IErMin=10 ErrMin= 2.65D-07
 ErrMax= 2.65D-07  0.00D+00 EMaxC= 1.00D-01 BMatC= 5.97D-12 BMatP= 7.59D-11
 IDIUse=1 WtCom= 1.00D+00 WtEn= 0.00D+00
 Coeff-Com: -0.211D-05 0.611D-04 0.587D-04-0.112D-03-0.175D-02-0.234D-02
 Coeff-Com: -0.766D-02-0.159D-01 0.196D+00 0.832D+00
 Coeff:     -0.211D-05 0.611D-04 0.587D-04-0.112D-03-0.175D-02-0.234D-02
 Coeff:     -0.766D-02-0.159D-01 0.196D+00 0.832D+00
 Gap=     0.155 Goal=   None    Shift=    0.000
 RMSDP=4.10D-08 MaxDP=7.46D-07 DE=-7.48D-11 OVMax= 1.13D-06

 Cycle  11  Pass 1  IDiag  1:
 E= -567.382253720849     Delta-E=       -0.000000000006 Rises=F Damp=F
 DIIS: error= 6.43D-08 at cycle  11 NSaved=  11.
 NSaved=11 IEnMin=11 EnMin= -567.382253720849     IErMin=11 ErrMin= 6.43D-08
 ErrMax= 6.43D-08  0.00D+00 EMaxC= 1.00D-01 BMatC= 3.39D-13 BMatP= 5.97D-12
 IDIUse=1 WtCom= 1.00D+00 WtEn= 0.00D+00
 Coeff-Com: -0.767D-06 0.815D-05 0.671D-05 0.308D-05 0.891D-04 0.469D-03
 Coeff-Com: -0.107D-02-0.134D-01-0.234D-01 0.129D+00 0.908D+00
 Coeff:     -0.767D-06 0.815D-05 0.671D-05 0.308D-05 0.891D-04 0.469D-03
 Coeff:     -0.107D-02-0.134D-01-0.234D-01 0.129D+00 0.908D+00
 Gap=     0.155 Goal=   None    Shift=    0.000
 RMSDP=1.32D-08 MaxDP=2.01D-07 DE=-6.25D-12 OVMax= 3.68D-07

 Cycle  12  Pass 1  IDiag  1:
 E= -567.382253720848     Delta-E=        0.000000000000 Rises=F Damp=F
 DIIS: error= 5.49D-09 at cycle  12 NSaved=  12.
 NSaved=12 IEnMin=11 EnMin= -567.382253720849     IErMin=12 ErrMin= 5.49D-09
 ErrMax= 5.49D-09  0.00D+00 EMaxC= 1.00D-01 BMatC= 3.00D-15 BMatP= 3.39D-13
 IDIUse=1 WtCom= 1.00D+00 WtEn= 0.00D+00
 Coeff-Com: -0.192D-07-0.106D-05 0.166D-06 0.355D-06 0.756D-04 0.160D-03
[...]
 Compute integral first derivatives, UseDBF=F ICtDFT=           0.
 Integral derivatives from FoFJK, PRISM(SPDF).
 Calling FoFJK, ICntrl=      2127 FMM=F ISym2X=1 I1Cent= 0 IOpClX= 0 NMat=1 NMatS=1 NMatT=0.
 FoFJK:  IHMeth= 1 ICntrl=    2127 DoSepK=F KAlg= 0 I1Cent=   0 FoldK=F
 IRaf=         0 NMat=   1 IRICut=       1 DoRegI=T DoRafI=F ISym2E= 1.
 FoFCou: FMM=F IPFlag=           0 FMFlag=      100000 FMFlg1=         800
         NFxFlg=           0 DoJE=F BraDBF=F KetDBF=F FulRan=T
         wScrn=  0.000000 ICntrl=    2127 IOpCl=  0 I1Cent=           0 NGrid=           0
         NMat0=    1 NMatS0=      1 NMatT0=    0 NMatD0=    1 NMtDS0=    0 NMtDT0=    0
 Petite list used in FoFCou.
 Leave Link  703 at Wed Oct 14 11:17:23 2015, MaxMem=    33554432 cpu:         2.5
 (Enter /group/hpc-share/gaussian/2009D/g09/l716.exe)
 Dipole        = 1.09710590D+00 4.70635734D-01 4.44089210D-16
 ***** Axes restored to original set *****
 -------------------------------------------------------------------
 Center     Atomic                   Forces (Hartrees/Bohr)
 Number     Number              X              Y              Z
 -------------------------------------------------------------------
      1        8           0.000007731    0.000000000   -0.000058963
      2        7          -0.000000037    0.000000000    0.000063247
      3       16          -0.000116765    0.000000000    0.000199021
      4        6           0.000092028    0.000000000   -0.000304756
      5        1           0.000019107    0.000000000    0.000017794
      6        1          -0.000001032    0.000001067    0.000041829
      7        1          -0.000001032   -0.000001067    0.000041829
 -------------------------------------------------------------------
 Cartesian Forces:  Max     0.000304756 RMS     0.000088992
 Leave Link  716 at Wed Oct 14 11:17:23 2015, MaxMem=    33554432 cpu:         0.2
 (Enter /group/hpc-share/gaussian/2009D/g09/l103.exe)

 GradGradGradGradGradGradGradGradGradGradGradGradGradGradGradGradGradGrad
 Berny optimization.
 Using GEDIIS/GDIIS optimizer.
 FormGI is forming the generalized inverse of G from B-inverse, IUseBI=4.
 Internal  Forces:  Max     0.000223985 RMS     0.000060975
 Search for a local minimum.
 Step number  10 out of a maximum of   28
 All quantities printed in internal units (Hartrees-Bohrs-Radians)
 RMS Force = .60975D-04 SwitMx=.10000D-02 MixMth= 2
 Mixed Optimization -- En-DIIS/RFO-DIIS
 Swapping is turned off.
 Update second derivatives using D2CorX and points    3    2    4    5    6
                                                      7    8    9   10
 DE= -2.51D-06 DEPred=-2.05D-06 R= 1.23D+00
 TightC=F SS=  1.41D+00  RLast= 5.74D-03 DXNew= 1.3364D+00 1.7214D-02
 Trust test= 1.23D+00 RLast= 5.74D-03 DXMaxT set to 7.95D-01
 The second derivative matrix:
                          R1        R2        R3        R4        R5
           R1           0.76462
           R2           0.12572   0.12622
           R3           0.02111   0.02042   0.31101
           R4          -0.00641  -0.00265   0.00064   0.35058
           R5           0.00315  -0.00112   0.00831  -0.00255   0.35390
           R6           0.00315  -0.00112   0.00831  -0.00255   0.00462
           A1           0.09831   0.03713  -0.00052   0.00855   0.00270
           A2          -0.02041   0.03764   0.01402   0.00244  -0.00338
           A3          -0.01404   0.00227  -0.01678   0.00711  -0.00039
           A4          -0.00035  -0.00937   0.01344  -0.00267  -0.00101
           A5          -0.00035  -0.00937   0.01344  -0.00267  -0.00101
           A6           0.00537   0.00827  -0.00530  -0.00115   0.00366
           A7           0.00537   0.00827  -0.00530  -0.00115   0.00366
           A8           0.00280   0.00043  -0.00089   0.00078  -0.00478
           D1           0.00000   0.00000   0.00000   0.00000   0.00000
           D2           0.00000   0.00000   0.00000   0.00000   0.00000
           D3          -0.00160  -0.00345  -0.00212   0.00217  -0.00672
           D4           0.00160   0.00345   0.00212  -0.00217   0.00672
                          R6        A1        A2        A3        A4
           R6           0.35390
           A1           0.00270   0.36683
           A2          -0.00338   0.09734   0.24113
           A3          -0.00039   0.02343   0.03821   0.14918
           A4          -0.00101  -0.00093  -0.01623   0.00969   0.15317
           A5          -0.00101  -0.00093  -0.01623   0.00969  -0.00683
           A6           0.00366  -0.00948  -0.00271  -0.01132   0.00453
           A7           0.00366  -0.00948  -0.00271  -0.01132   0.00453
           A8          -0.00478  -0.00304   0.00051   0.01223  -0.00421
           D1           0.00000   0.00000   0.00000   0.00000   0.00000
           D2           0.00000   0.00000   0.00000   0.00000   0.00000
           D3          -0.00672   0.00231   0.00176   0.01372  -0.00453
           D4           0.00672  -0.00231  -0.00176  -0.01372   0.00453
                          A5        A6        A7        A8        D1
           A5           0.15317
           A6           0.00453   0.16124
           A7           0.00453   0.00124   0.16124
           A8          -0.00421  -0.00056  -0.00056   0.15801
           D1           0.00000   0.00000   0.00000   0.00000   0.02288
           D2           0.00000   0.00000   0.00000   0.00000   0.00000
           D3          -0.00453  -0.00230  -0.00230   0.00050   0.00000
           D4           0.00453   0.00230   0.00230  -0.00050   0.00000
                          D2        D3        D4
           D2           0.01561
           D3           0.00000   0.01905
           D4           0.00000  -0.00344   0.01905
 ITU=  1  1  1  1  1  1  0  0  1  0
     Eigenvalues ---    0.01561   0.02288   0.08705   0.09268   0.10695
     Eigenvalues ---    0.13749   0.16000   0.16374   0.20020   0.31310
     Eigenvalues ---    0.34827   0.34928   0.36226   0.41689   0.81416
 En-DIIS/RFO-DIIS IScMMF=        0 using points:    10    9    8
 RFO step:  Lambda=-1.41825786D-07.
 NNeg= 0 NP= 3 Switch=  2.50D-03 Rises=F DC=  2.67D-05 SmlDif=  1.00D-05
 RMS Error=  0.1339204434D-03 NUsed= 3 EDIIS=F
 DidBck=F Rises=F RFO-DIIS coefs:    1.33185   -0.39707    0.06522
 Iteration  1 RMS(Cart)=  0.00065550 RMS(Int)=  0.00000027
 Iteration  2 RMS(Cart)=  0.00000027 RMS(Int)=  0.00000007
 ITry= 1 IFail=0 DXMaxC= 1.18D-03 DCOld= 1.00D+10 DXMaxT= 7.95D-01 DXLimC= 3.00D+00 Rises=F
 ClnCor:  largest displacement from symmetrization is 1.97D-12 for atom     7.
 Variable       Old X    -DE/DX   Delta X   Delta X   Delta X     New X
                                 (Linear)    (Quad)   (Total)
    R1        2.23082   0.00006  -0.00009   0.00028   0.00020   2.23102
    R2        3.36453  -0.00002   0.00009  -0.00030  -0.00021   3.36432
    R3        3.38397  -0.00022  -0.00049  -0.00043  -0.00092   3.38305
    R4        2.08230   0.00002   0.00008   0.00002   0.00010   2.08240
    R5        2.08080   0.00001   0.00003   0.00002   0.00004   2.08084
    R6        2.08080   0.00001   0.00003   0.00002   0.00004   2.08084
    A1        2.03028  -0.00002   0.00001  -0.00022  -0.00021   2.03007
    A2        1.67316   0.00005   0.00024   0.00030   0.00054   1.67370
    A3        1.86096  -0.00002  -0.00071   0.00036  -0.00036   1.86060
    A4        1.93455   0.00005   0.00035   0.00019   0.00054   1.93509
    A5        1.93455   0.00005   0.00035   0.00019   0.00054   1.93509
    A6        1.90252  -0.00003  -0.00006  -0.00027  -0.00034   1.90219
    A7        1.90252  -0.00003  -0.00006  -0.00027  -0.00034   1.90219
    A8        1.92708  -0.00002   0.00009  -0.00019  -0.00009   1.92698
    D1        3.14159   0.00000   0.00000   0.00000   0.00000   3.14159
    D2        3.14159   0.00000   0.00000   0.00000   0.00000   3.14159
    D3       -1.07316  -0.00002  -0.00031  -0.00001  -0.00032  -1.07348
    D4        1.07316   0.00002   0.00031   0.00001   0.00032   1.07348
         Item               Value     Threshold  Converged?
 Maximum Force            0.000224     0.000450     YES
 RMS     Force            0.000061     0.000300     YES
 Maximum Displacement     0.001177     0.001800     YES
 RMS     Displacement     0.000655     0.001200     YES
 Predicted change in Energy=-1.592201D-07
 Optimization completed.
    -- Stationary point found.
                           ----------------------------
                           !   Optimized Parameters   !
                           ! (Angstroms and Degrees)  !
 --------------------------                            --------------------------
 ! Name  Definition              Value          Derivative Info.                !
 --------------------------------------------------------------------------------
 ! R1    R(1,2)                  1.1805         -DE/DX =    0.0001              !
 ! R2    R(2,3)                  1.7804         -DE/DX =    0.0                 !
 ! R3    R(3,4)                  1.7907         -DE/DX =   -0.0002              !
 ! R4    R(4,5)                  1.1019         -DE/DX =    0.0                 !
 ! R5    R(4,6)                  1.1011         -DE/DX =    0.0                 !
 ! R6    R(4,7)                  1.1011         -DE/DX =    0.0                 !
 ! A1    A(1,2,3)              116.3263         -DE/DX =    0.0                 !
 ! A2    A(2,3,4)               95.865          -DE/DX =    0.0001              !
 ! A3    A(3,4,5)              106.6252         -DE/DX =    0.0                 !
 ! A4    A(3,4,6)              110.8416         -DE/DX =    0.0001              !
 ! A5    A(3,4,7)              110.8416         -DE/DX =    0.0001              !
 ! A6    A(5,4,6)              109.0065         -DE/DX =    0.0                 !
 ! A7    A(5,4,7)              109.0065         -DE/DX =    0.0                 !
 ! A8    A(6,4,7)              110.4134         -DE/DX =    0.0                 !
 ! D1    D(1,2,3,4)            180.0            -DE/DX =    0.0                 !
 ! D2    D(2,3,4,5)            180.0            -DE/DX =    0.0                 !
 ! D3    D(2,3,4,6)            -61.4874         -DE/DX =    0.0                 !
 ! D4    D(2,3,4,7)             61.4874         -DE/DX =    0.0                 !
 --------------------------------------------------------------------------------
 Lowest energy point so far.  Saving SCF results.
 GradGradGradGradGradGradGradGradGradGradGradGradGradGradGradGradGradGrad

 Largest change from initial coordinates is atom    6       0.476 Angstoms.
 Leave Link  103 at Wed Oct 14 11:17:23 2015, MaxMem=    33554432 cpu:         0.2
 (Enter /group/hpc-share/gaussian/2009D/g09/l202.exe)
                          Input orientation:                          
 ---------------------------------------------------------------------
 Center     Atomic      Atomic             Coordinates (Angstroms)
 Number     Number       Type             X           Y           Z
 ---------------------------------------------------------------------
      1          8           0        0.070710    0.000000   -0.208057
      2          7           0       -0.066860    0.000000    0.964399
      3         16           0        1.426026    0.000000    1.934575
      4          6           0        0.608785    0.000000    3.527935
      5          1           0        1.404379    0.000000    4.290315
      6          1           0       -0.007091    0.904250    3.652334
      7          1           0       -0.007091   -0.904250    3.652334
 ---------------------------------------------------------------------
                    Distance matrix (angstroms):
                    1          2          3          4          5
     1  O    0.000000
     2  N    1.180500   0.000000
     3  S    2.535302   1.780435   0.000000
     4  C    3.774541   2.651077   1.790720   0.000000
     5  H    4.691910   3.636792   2.355839   1.101904   0.000000
     6  H    3.965645   2.836588   2.412921   1.101111   1.793581
     7  H    3.965645   2.836588   2.412921   1.101111   1.793581
                    6          7
     6  H    0.000000
     7  H    1.808500   0.000000
 Stoichiometry    CH3NOS
 Framework group  CS[SG(CHNOS),X(H2)]
 Deg. of freedom    10
 Full point group                 CS      NOp   2
 RotChk:  IX=0 Diff= 3.60D-15
 Largest Abelian subgroup         CS      NOp   2
 Largest concise Abelian subgroup CS      NOp   2
                         Standard orientation:                         
 ---------------------------------------------------------------------
 Center     Atomic      Atomic             Coordinates (Angstroms)
 Number     Number       Type             X           Y           Z
 ---------------------------------------------------------------------
      1          8           0       -1.671531   -1.148150    0.000000
      2          7           0       -0.508068   -0.948317    0.000000
      3         16           0        0.000000    0.758087    0.000000
      4          6           0        1.759494    0.425136    0.000000
      5          1           0        2.265578    1.403947    0.000000
      6          1           0        2.053088   -0.130365    0.904250
      7          1           0        2.053088   -0.130365   -0.904250
 ---------------------------------------------------------------------
 Rotational constants (GHZ):     19.6756754      3.8158625      3.2640723
 Leave Link  202 at Wed Oct 14 11:17:23 2015, MaxMem=    33554432 cpu:         0.0
 (Enter /group/hpc-share/gaussian/2009D/g09/l601.exe)
 Copying SCF densities to generalized density rwf, IOpCl= 0 IROHF=0.

 **********************************************************************

            Population analysis using the SCF density.

 **********************************************************************

 Orbital symmetries:
       Occupied  (A') (A') (A') (A') (A') (A') (A') (A") (A') (A')
                 (A') (A') (A') (A") (A') (A") (A') (A') (A") (A')
       Virtual   (A") (A') (A') (A') (A') (A") (A') (A') (A") (A')
                 (A') (A") (A') (A') (A") (A') (A') (A') (A') (A")
                 (A') (A") (A") (A') (A') (A') (A") (A') (A') (A')
                 (A') (A") (A') (A") (A') (A") (A') (A") (A') (A')
                 (A") (A') (A') (A") (A') (A') (A") (A") (A') (A')
                 (A')
 The electronic state is 1-A'.
 Alpha  occ. eigenvalues --  -89.03222 -19.28250 -14.53165 -10.26304  -8.03474
 Alpha  occ. eigenvalues --   -5.97619  -5.97274  -5.96797  -1.21656  -0.85002
 Alpha  occ. eigenvalues --   -0.72214  -0.61716  -0.52118  -0.50046  -0.49407
 Alpha  occ. eigenvalues --   -0.45172  -0.43277  -0.38195  -0.27773  -0.24743
 Alpha virt. eigenvalues --   -0.08302   0.00484   0.07315   0.10693   0.12534
 Alpha virt. eigenvalues --    0.13495   0.29008   0.38219   0.40327   0.43205
 Alpha virt. eigenvalues --    0.47994   0.55214   0.58551   0.61923   0.65244
 Alpha virt. eigenvalues --    0.66571   0.68693   0.69623   0.70594   0.70623
 Alpha virt. eigenvalues --    0.75242   0.75762   0.83174   0.87202   0.90620
 Alpha virt. eigenvalues --    0.93921   0.99000   1.03068   1.05581   1.13663
 Alpha virt. eigenvalues --    1.38654   1.69570   1.72299   1.89950   1.97593
 Alpha virt. eigenvalues --    2.05906   2.09647   2.11362   2.13051   2.30880
 Alpha virt. eigenvalues --    2.64044   2.65360   2.67587   3.21518   3.23919
 Alpha virt. eigenvalues --    3.68441   4.63470   4.64963   4.69042   4.77806
 Alpha virt. eigenvalues --    4.93560
          Condensed to atoms (all electrons):
               1          2          3          4          5          6
     1  O    7.961620   0.307371  -0.098501   0.003506  -0.000064   0.000072
     2  N    0.307371   6.638714   0.113165  -0.027804   0.002508   0.002648
     3  S   -0.098501   0.113165  15.732179   0.247432  -0.022289  -0.028822
     4  C    0.003506  -0.027804   0.247432   5.092863   0.377505   0.376060
     5  H   -0.000064   0.002508  -0.022289   0.377505   0.475794  -0.013136
     6  H    0.000072   0.002648  -0.028822   0.376060  -0.013136   0.487218
     7  H    0.000072   0.002648  -0.028822   0.376060  -0.013136  -0.014277
               7
     1  O    0.000072
     2  N    0.002648
     3  S   -0.028822
     4  C    0.376060
     5  H   -0.013136
     6  H   -0.014277
     7  H    0.487218
 Mulliken charges:
               1
     1  O   -0.174076
     2  N   -0.039250
     3  S    0.085657
     4  C   -0.445623
     5  H    0.192817
     6  H    0.190237
     7  H    0.190237
 Sum of Mulliken charges =   0.00000
 Mulliken charges with hydrogens summed into heavy atoms:
               1
     1  O   -0.174076
     2  N   -0.039250
     3  S    0.085657
     4  C    0.127668
 Electronic spatial extent (au):  <R**2>=            378.6055
 Charge=              0.0000 electrons
 Dipole moment (field-independent basis, Debye):
    X=              2.7886    Y=              1.1962    Z=              0.0000  Tot=              3.0343
 Quadrupole moment (field-independent basis, Debye-Ang):
   XX=            -29.1348   YY=            -32.0885   ZZ=            -29.8554
   XY=              0.0575   XZ=              0.0000   YZ=              0.0000
 Traceless Quadrupole moment (field-independent basis, Debye-Ang):
   XX=              1.2248   YY=             -1.7289   ZZ=              0.5042
   XY=              0.0575   XZ=              0.0000   YZ=              0.0000
 Octapole moment (field-independent basis, Debye-Ang**2):
  XXX=              4.5246  YYY=              0.1901  ZZZ=              0.0000  XYY=              2.4769
  XXY=              4.1824  XXZ=              0.0000  XZZ=             -1.5575  YZZ=             -3.6012
  YYZ=              0.0000  XYZ=              0.0000
 Hexadecapole moment (field-independent basis, Debye-Ang**3):
 XXXX=           -278.0575 YYYY=           -160.2089 ZZZZ=            -36.4886 XXXY=            -56.2847
 XXXZ=              0.0000 YYYX=            -51.5897 YYYZ=              0.0000 ZZZX=              0.0000
 ZZZY=              0.0000 XXYY=            -72.0834 XXZZ=            -48.7865 YYZZ=            -32.8219
 XXYZ=              0.0000 YYXZ=              0.0000 ZZXY=            -18.1136
 N-N= 1.554005699332D+02 E-N=-1.654291434586D+03  KE= 5.656335234274D+02
 Symmetry A'   KE= 5.209058115382D+02
 Symmetry A"   KE= 4.472771188920D+01
 No NMR shielding tensors so no spin-rotation constants.
 Leave Link  601 at Wed Oct 14 11:17:23 2015, MaxMem=    33554432 cpu:         1.4
 (Enter /group/hpc-share/gaussian/2009D/g09/l9999.exe)
 B after Tr=    -0.084619    0.000000    0.232900
         Rot=    0.999699    0.000000   -0.024535    0.000000 Ang=  -2.81 deg.
 Final structure in terms of initial Z-matrix:
 O
 N,1,no2
 S,2,sn3,1,sno3
 C,3,cs4,1,cso4,2,dih4,0
 H,4,hc5,3,hcs5,1,dih5,0
 H,4,hc6,3,hcs6,5,dih6,0
 H,4,hc7,3,hcs7,5,dih7,0
      Variables:
 no2=1.18049962
 sn3=1.78043508
 sno3=116.32630307
 cs4=1.79071981
 cso4=120.53124467
 dih4=0.
 hc5=1.10190407
 hcs5=106.62524254
 dih5=180.
 hc6=1.10111147
 hcs6=110.84158732
 dih6=118.51262875
 hc7=1.10111147
 hcs7=110.84158732
 dih7=-118.51262875
 1\1\GINC-HPC-CN15\FOpt\RPBE1PBE\Gen\C1H3N1O1S1\6498IVANOVM\14-Oct-2015
 \0\\#P PBE1PBE/gen scrf(pcm,solvent=diethylether) scf(tight) opt\\tran
 s-mesno\\0,1\O,0.1542464442,0.,-0.244413929\N,0.0166767734,0.,0.928042
 4395\S,1.5095624358,0.,1.8982184355\C,0.6923217452,0.,3.4915781221\H,1
 .4879155475,0.,4.2539580023\H,0.0764458554,0.9042500932,3.6159771844\H
 ,0.0764458554,-0.9042500932,3.6159771844\\Version=EM64L-G09RevD.01\Sta
 te=1-A'\HF=-567.4096851\RMSD=4.788e-09\RMSF=8.899e-05\Dipole=0.1409424
 ,0.,1.1854428\Quadrupole=-1.132753,0.374829,0.757924,0.,-0.5601442,0.\
 PG=CS [SG(C1H1N1O1S1),X(H2)]\\@


 THE NUMBERS ARE MEANINGLESS, BUT THE TRENDS ARE IMPORTANT.
     -- LARRY BURGGRAF
 Job cpu time:       0 days  0 hours  6 minutes  3.7 seconds.
 File lengths (MBytes):  RWF=     34 Int=      0 D2E=      0 Chk=      3 Scr=      1
 Normal termination of Gaussian 09 at Wed Oct 14 11:17:23 2015.
