 Entering Gaussian System, Link 0=g09
 Input=trans-mesno.com
 Output=trans-mesno.log
 AtFile(1): trans-mesno.zmat
             o
             n   1 no2
             s    2 sn3         1 sno3
             c    3 cs4         1 cso4          2 dih4
             h    4 hc5         3 hcs5          1 dih5
             h    4 hc6         3 hcs6          5 dih6
             h    4 hc7         3 hcs7          5 dih7
            
            no2         1.400000
            sn3         1.625000
            sno3        109.471
            cs4         1.710000
            cso4        109.471
            dih4          0.000
            hc5         1.089000
            hcs5        109.471
            dih5        180.000
            hc6         1.089000
            hcs6        109.471
            dih6        120.000
            hc7         1.089000
            hcs7        109.471
            dih7        240.000
 Initial command:
 /group/hpc-share/gaussian/2009D/g09/l1.exe "/scratch/gaussian/g_trans-mesno.com-809783.hn1.marqnet.mu.edu/Gau-25024.inp" -scrdir="/scratch/gaussian/g_trans-mesno.com-809783.hn1.marqnet.mu.edu/"
 Entering Link 1 = /group/hpc-share/gaussian/2009D/g09/l1.exe PID=     25025.
  
 Copyright (c) 1988,1990,1992,1993,1995,1998,2003,2009,2013,
            Gaussian, Inc.  All Rights Reserved.
  
 This is part of the Gaussian(R) 09 program.  It is based on
 the Gaussian(R) 03 system (copyright 2003, Gaussian, Inc.),
 the Gaussian(R) 98 system (copyright 1998, Gaussian, Inc.),
 the Gaussian(R) 94 system (copyright 1995, Gaussian, Inc.),
 the Gaussian 92(TM) system (copyright 1992, Gaussian, Inc.),
 the Gaussian 90(TM) system (copyright 1990, Gaussian, Inc.),
 the Gaussian 88(TM) system (copyright 1988, Gaussian, Inc.),
 the Gaussian 86(TM) system (copyright 1986, Carnegie Mellon
 University), and the Gaussian 82(TM) system (copyright 1983,
 Carnegie Mellon University). Gaussian is a federally registered
 trademark of Gaussian, Inc.
  
 This software contains proprietary and confidential information,
 including trade secrets, belonging to Gaussian, Inc.
  
 This software is provided under written license and may be
 used, copied, transmitted, or stored only in accord with that
 written license.
  
 The following legend is applicable only to US Government
 contracts under FAR:
  
                    RESTRICTED RIGHTS LEGEND
  
 Use, reproduction and disclosure by the US Government is
 subject to restrictions as set forth in subparagraphs (a)
 and (c) of the Commercial Computer Software - Restricted
 Rights clause in FAR 52.227-19.
  
 Gaussian, Inc.
 340 Quinnipiac St., Bldg. 40, Wallingford CT 06492
  
  
 ---------------------------------------------------------------
 Warning -- This program may not be used in any manner that
 competes with the business of Gaussian, Inc. or will provide
 assistance to any competitor of Gaussian, Inc.  The licensee
 of this program is prohibited from giving any competitor of
 Gaussian, Inc. access to this program.  By using this program,
 the user acknowledges that Gaussian, Inc. is engaged in the
 business of creating and licensing software in the field of
 computational chemistry and represents and warrants to the
 licensee that it is not a competitor of Gaussian, Inc. and that
 it will not use this program in any manner prohibited above.
 ---------------------------------------------------------------
  

 Cite this work as:
 Gaussian 09, Revision D.01,
 M. J. Frisch, G. W. Trucks, H. B. Schlegel, G. E. Scuseria, 
 M. A. Robb, J. R. Cheeseman, G. Scalmani, V. Barone, B. Mennucci, 
 G. A. Petersson, H. Nakatsuji, M. Caricato, X. Li, H. P. Hratchian, 
 A. F. Izmaylov, J. Bloino, G. Zheng, J. L. Sonnenberg, M. Hada, 
 M. Ehara, K. Toyota, R. Fukuda, J. Hasegawa, M. Ishida, T. Nakajima, 
 Y. Honda, O. Kitao, H. Nakai, T. Vreven, J. A. Montgomery, Jr., 
 J. E. Peralta, F. Ogliaro, M. Bearpark, J. J. Heyd, E. Brothers, 
 K. N. Kudin, V. N. Staroverov, T. Keith, R. Kobayashi, J. Normand, 
 K. Raghavachari, A. Rendell, J. C. Burant, S. S. Iyengar, J. Tomasi, 
 M. Cossi, N. Rega, J. M. Millam, M. Klene, J. E. Knox, J. B. Cross, 
 V. Bakken, C. Adamo, J. Jaramillo, R. Gomperts, R. E. Stratmann, 
 O. Yazyev, A. J. Austin, R. Cammi, C. Pomelli, J. W. Ochterski, 
 R. L. Martin, K. Morokuma, V. G. Zakrzewski, G. A. Voth, 
 P. Salvador, J. J. Dannenberg, S. Dapprich, A. D. Daniels, 
 O. Farkas, J. B. Foresman, J. V. Ortiz, J. Cioslowski, 
 and D. J. Fox, Gaussian, Inc., Wallingford CT, 2013.
 
 ******************************************
 Gaussian 09:  EM64L-G09RevD.01 24-Apr-2013
                21-Sep-2015 
 ******************************************
 %nproc=8
 Will use up to    8 processors via shared memory.
 %chk=trans-mesno.chk
 ------------------------
 #P b3lyp/aug-cc-pvdz opt
 ------------------------
 1/14=-1,18=20,19=15,26=3,38=1/1,3;
 2/9=110,12=2,17=6,18=5,40=1/2;
 3/5=16,7=10,11=2,16=1,25=1,30=1,71=1,74=-5/1,2,3;
 4//1;
 5/5=2,38=5/2;
 6/7=2,8=2,9=2,10=2,28=1/1;
 7//1,2,3,16;
 1/14=-1,18=20,19=15,26=3/3(2);
 2/9=110/2;
 99//99;
 2/9=110/2;
 3/5=16,7=10,11=2,16=1,25=1,30=1,71=1,74=-5/1,2,3;
 4/5=5,16=3,69=1/1;
 5/5=2,38=5/2;
 7//1,2,3,16;
 1/14=-1,18=20,19=15,26=3/3(-5);
 2/9=110/2;
 6/7=2,8=2,9=2,10=2,19=2,28=1/1;
 99/9=1/99;
 Leave Link    1 at Mon Sep 21 22:14:41 2015, MaxMem=           0 cpu:         0.5
 (Enter /group/hpc-share/gaussian/2009D/g09/l101.exe)
 -----------
 trans-mesno
 -----------
 Symbolic Z-matrix:
 Charge =  0 Multiplicity = 1
 o
 n                    1    no2
 s                    2    sn3      1    sno3
 c                    3    cs4      1    cso4     2    dih4     0
 h                    4    hc5      3    hcs5     1    dih5     0
 h                    4    hc6      3    hcs6     5    dih6     0
 h                    4    hc7      3    hcs7     5    dih7     0
       Variables:
  no2                   1.4                      
  sn3                   1.625                    
  sno3                109.471                    
  cs4                   1.71                     
  cso4                109.471                    
  dih4                  0.                       
  hc5                   1.089                    
  hcs5                109.471                    
  dih5                180.                       
  hc6                   1.089                    
  hcs6                109.471                    
  dih6                120.                       
  hc7                   1.089                    
  hcs7                109.471                    
  dih7                240.                       
 
     5 tetrahedral angles replaced.
 NAtoms=      7 NQM=        7 NQMF=       0 NMMI=      0 NMMIF=      0
                NMic=       0 NMicF=      0.
                    Isotopes and Nuclear Properties:
 (Nuclear quadrupole moments (NQMom) in fm**2, nuclear magnetic moments (NMagM)
  in nuclear magnetons)

  Atom         1           2           3           4           5           6           7
 IAtWgt=          16          14          32          12           1           1           1
 AtmWgt=  15.9949146  14.0030740  31.9720718  12.0000000   1.0078250   1.0078250   1.0078250
 NucSpn=           0           2           0           0           1           1           1
 AtZEff=   0.0000000   0.0000000   0.0000000   0.0000000   0.0000000   0.0000000   0.0000000
 NQMom=    0.0000000   2.0440000   0.0000000   0.0000000   0.0000000   0.0000000   0.0000000
 NMagM=    0.0000000   0.4037610   0.0000000   0.0000000   2.7928460   2.7928460   2.7928460
 AtZNuc=   8.0000000   7.0000000  16.0000000   6.0000000   1.0000000   1.0000000   1.0000000
 Leave Link  101 at Mon Sep 21 22:14:41 2015, MaxMem=    33554432 cpu:         1.0
 (Enter /group/hpc-share/gaussian/2009D/g09/l103.exe)

 GradGradGradGradGradGradGradGradGradGradGradGradGradGradGradGradGradGrad
 Berny optimization.
 Initialization pass.
                           ----------------------------
                           !    Initial Parameters    !
                           ! (Angstroms and Degrees)  !
 --------------------------                            --------------------------
 ! Name  Definition              Value          Derivative Info.                !
 --------------------------------------------------------------------------------
 ! R1    R(1,2)                  1.4            estimate D2E/DX2                !
 ! R2    R(2,3)                  1.625          estimate D2E/DX2                !
 ! R3    R(3,4)                  1.71           estimate D2E/DX2                !
 ! R4    R(4,5)                  1.089          estimate D2E/DX2                !
 ! R5    R(4,6)                  1.089          estimate D2E/DX2                !
 ! R6    R(4,7)                  1.089          estimate D2E/DX2                !
 ! A1    A(1,2,3)              109.4712         estimate D2E/DX2                !
 ! A2    A(2,3,4)               77.2175         estimate D2E/DX2                !
 ! A3    A(3,4,5)              109.4712         estimate D2E/DX2                !
 ! A4    A(3,4,6)              109.4712         estimate D2E/DX2                !
 ! A5    A(3,4,7)              109.4712         estimate D2E/DX2                !
 ! A6    A(5,4,6)              109.4712         estimate D2E/DX2                !
 ! A7    A(5,4,7)              109.4712         estimate D2E/DX2                !
 ! A8    A(6,4,7)              109.4712         estimate D2E/DX2                !
 ! D1    D(1,2,3,4)            180.0            estimate D2E/DX2                !
 ! D2    D(2,3,4,5)            180.0            estimate D2E/DX2                !
 ! D3    D(2,3,4,6)            -60.0            estimate D2E/DX2                !
 ! D4    D(2,3,4,7)             60.0            estimate D2E/DX2                !
 --------------------------------------------------------------------------------
 Trust Radius=3.00D-01 FncErr=1.00D-07 GrdErr=1.00D-06
 Number of steps in this run=     28 maximum allowed number of steps=    100.
 GradGradGradGradGradGradGradGradGradGradGradGradGradGradGradGradGradGrad

 Leave Link  103 at Mon Sep 21 22:14:42 2015, MaxMem=    33554432 cpu:         0.1
 (Enter /group/hpc-share/gaussian/2009D/g09/l202.exe)
                          Input orientation:                          
 ---------------------------------------------------------------------
 Center     Atomic      Atomic             Coordinates (Angstroms)
 Number     Number       Type             X           Y           Z
 ---------------------------------------------------------------------
      1          8           0        0.000000    0.000000    0.000000
      2          7           0        0.000000    0.000000    1.400000
      3         16           0        1.532065    0.000000    1.941667
      4          6           0        0.619490    0.000000    3.387802
      5          1           0        1.294058    0.000000    4.242717
      6          1           0       -0.008376    0.889165    3.420825
      7          1           0       -0.008376   -0.889165    3.420825
 ---------------------------------------------------------------------
                    Distance matrix (angstroms):
                    1          2          3          4          5
     1  O    0.000000
     2  N    1.400000   0.000000
     3  S    2.473316   1.625000   0.000000
     4  C    3.443976   2.082096   1.710000   0.000000
     5  H    4.435678   3.123400   2.313327   1.089000   0.000000
     6  H    3.534505   2.207808   2.313327   1.089000   1.778330
     7  H    3.534505   2.207808   2.313327   1.089000   1.778330
                    6          7
     6  H    0.000000
     7  H    1.778330   0.000000
 Stoichiometry    CH3NOS
 Framework group  CS[SG(CHNOS),X(H2)]
 Deg. of freedom    10
 Full point group                 CS      NOp   2
 Largest Abelian subgroup         CS      NOp   2
 Largest concise Abelian subgroup CS      NOp   2
                         Standard orientation:                         
 ---------------------------------------------------------------------
 Center     Atomic      Atomic             Coordinates (Angstroms)
 Number     Number       Type             X           Y           Z
 ---------------------------------------------------------------------
      1          8           0       -1.658165   -1.029426    0.000000
      2          7           0       -0.277874   -0.795340    0.000000
      3         16           0        0.000000    0.805725    0.000000
      4          6           0        1.578363    0.147798    0.000000
      5          1           0        2.308453    0.955814    0.000000
      6          1           0        1.715903   -0.465709    0.889165
      7          1           0        1.715903   -0.465709   -0.889165
 ---------------------------------------------------------------------
 Rotational constants (GHZ):     16.8968925      4.7099168      3.7708258
 Leave Link  202 at Mon Sep 21 22:14:42 2015, MaxMem=    33554432 cpu:         0.0
 (Enter /group/hpc-share/gaussian/2009D/g09/l301.exe)
 Standard basis: Aug-CC-pVDZ (5D, 7F)
 Ernie: Thresh=  0.10000D-02 Tol=  0.10000D-05 Strict=F.
 Ernie:  16 primitive shells out of 149 were deleted.
 There are    91 symmetry adapted cartesian basis functions of A'  symmetry.
 There are    40 symmetry adapted cartesian basis functions of A"  symmetry.
 There are    83 symmetry adapted basis functions of A'  symmetry.
 There are    40 symmetry adapted basis functions of A"  symmetry.
   123 basis functions,   243 primitive gaussians,   131 cartesian basis functions
    20 alpha electrons       20 beta electrons
       nuclear repulsion energy       161.2948246114 Hartrees.
 IExCor=  402 DFT=T Ex+Corr=B3LYP ExCW=0 ScaHFX=  0.200000
 ScaDFX=  0.800000  0.720000  1.000000  0.810000 ScalE2=  1.000000  1.000000
 IRadAn=      0 IRanWt=     -1 IRanGd=            0 ICorTp=0 IEmpDi=  4
 NAtoms=    7 NActive=    7 NUniq=    6 SFac= 1.36D+00 NAtFMM=   60 NAOKFM=F Big=F
 Integral buffers will be    131072 words long.
 Raffenetti 2 integral format.
 Two-electron integral symmetry is turned on.
 Leave Link  301 at Mon Sep 21 22:14:42 2015, MaxMem=    33554432 cpu:         0.5
 (Enter /group/hpc-share/gaussian/2009D/g09/l302.exe)
 NPDir=0 NMtPBC=     1 NCelOv=     1 NCel=       1 NClECP=     1 NCelD=      1
         NCelK=      1 NCelE2=     1 NClLst=     1 CellRange=     0.0.
 One-electron integrals computed using PRISM.
 One-electron integral symmetry used in STVInt
 NBasis=   123 RedAO= T EigKep=  4.02D-04  NBF=    83    40
 NBsUse=   123 1.00D-06 EigRej= -1.00D+00 NBFU=    83    40
 Precomputing XC quadrature grid using
 IXCGrd= 4 IRadAn=           0 IRanWt=          -1 IRanGd=           0 AccXCQ= 0.00D+00.
 Generated NRdTot=       0 NPtTot=           0 NUsed=           0 NTot=          32
 NSgBfM=   131   131   131   131   131 MxSgAt=     7 MxSgA2=     7.
 Leave Link  302 at Mon Sep 21 22:14:42 2015, MaxMem=    33554432 cpu:         1.8
 (Enter /group/hpc-share/gaussian/2009D/g09/l303.exe)
 DipDrv:  MaxL=1.
 Leave Link  303 at Mon Sep 21 22:14:42 2015, MaxMem=    33554432 cpu:         0.3
 (Enter /group/hpc-share/gaussian/2009D/g09/l401.exe)
 ExpMin= 2.97D-02 ExpMax= 1.11D+05 ExpMxC= 1.07D+03 IAcc=3 IRadAn=         5 AccDes= 0.00D+00
 Harris functional with IExCor=  402 and IRadAn=       5 diagonalized for initial guess.
 HarFok:  IExCor=  402 AccDes= 0.00D+00 IRadAn=         5 IDoV= 1 UseB2=F ITyADJ=14
 ICtDFT=  3500011 ScaDFX=  1.000000  1.000000  1.000000  1.000000
 FoFCou: FMM=F IPFlag=           0 FMFlag=      100000 FMFlg1=           0
         NFxFlg=           0 DoJE=T BraDBF=F KetDBF=T FulRan=T
         wScrn=  0.000000 ICntrl=     500 IOpCl=  0 I1Cent=   200000004 NGrid=           0
         NMat0=    1 NMatS0=      1 NMatT0=    0 NMatD0=    1 NMtDS0=    0 NMtDT0=    0
 Petite list used in FoFCou.
 Harris En= -567.963746677935    
 JPrj=0 DoOrth=F DoCkMO=F.
 Initial guess orbital symmetries:
       Occupied  (A') (A') (A') (A') (A') (A') (A') (A") (A') (A')
                 (A') (A') (A') (A") (A') (A') (A") (A') (A') (A")
       Virtual   (A") (A') (A') (A') (A") (A') (A') (A') (A') (A")
                 (A') (A") (A') (A') (A") (A') (A') (A") (A') (A')
                 (A") (A') (A') (A') (A') (A") (A") (A') (A') (A")
                 (A') (A') (A') (A") (A") (A') (A") (A') (A') (A')
                 (A') (A") (A') (A") (A') (A') (A") (A') (A") (A')
                 (A") (A') (A") (A') (A') (A') (A") (A') (A") (A')
                 (A") (A') (A") (A') (A') (A') (A") (A') (A') (A")
                 (A') (A') (A") (A') (A') (A") (A") (A') (A') (A")
                 (A') (A') (A') (A") (A') (A') (A") (A') (A") (A')
                 (A") (A') (A') (A') (A") (A') (A') (A") (A') (A')
                 (A") (A') (A')
 The electronic state of the initial guess is 1-A'.
 Leave Link  401 at Mon Sep 21 22:14:43 2015, MaxMem=    33554432 cpu:         3.2
 (Enter /group/hpc-share/gaussian/2009D/g09/l502.exe)
 Closed shell SCF:
 Using DIIS extrapolation, IDIIS=  1040.
 Integral symmetry usage will be decided dynamically.
 IVT=       72237 IEndB=       72237 NGot=    33554432 MDV=    33516128
 LenX=    33516128 LenY=    33498526
 Requested convergence on RMS density matrix=1.00D-08 within 128 cycles.
 Requested convergence on MAX density matrix=1.00D-06.
 Requested convergence on             energy=1.00D-06.
 No special actions if energy rises.
 Fock matrices will be formed incrementally for  20 cycles.

 Cycle   1  Pass 1  IDiag  1:
 FoFJK:  IHMeth= 1 ICntrl=       0 DoSepK=F KAlg= 0 I1Cent=   0 FoldK=F
 IRaf= 990000000 NMat=   1 IRICut=       1 DoRegI=T DoRafI=F ISym2E= 1.
 FoFCou: FMM=F IPFlag=           0 FMFlag=      100000 FMFlg1=           0
         NFxFlg=           0 DoJE=F BraDBF=F KetDBF=F FulRan=T
         wScrn=  0.000000 ICntrl=       0 IOpCl=  0 I1Cent=           0 NGrid=           0
         NMat0=    1 NMatS0=      1 NMatT0=    0 NMatD0=    1 NMtDS0=    0 NMtDT0=    0
 Petite list used in FoFCou.
 E= -567.730194351464    
 DIIS: error= 2.54D-02 at cycle   1 NSaved=   1.
 NSaved= 1 IEnMin= 1 EnMin= -567.730194351464     IErMin= 1 ErrMin= 2.54D-02
 ErrMax= 2.54D-02  0.00D+00 EMaxC= 1.00D-01 BMatC= 2.23D-01 BMatP= 2.23D-01
 IDIUse=3 WtCom= 7.46D-01 WtEn= 2.54D-01
 Coeff-Com:  0.100D+01
 Coeff-En:   0.100D+01
 Coeff:      0.100D+01
 Gap=     0.035 Goal=   None    Shift=    0.000
 GapD=    0.035 DampG=0.250 DampE=0.500 DampFc=0.2500 IDamp=-1.
 Damping current iteration by 2.50D-01
 RMSDP=1.64D-02 MaxDP=4.18D-01              OVMax= 6.70D-01

 Cycle   2  Pass 1  IDiag  1:
 RMSU=  4.05D-03    CP:  9.80D-01
 E= -567.689867771490     Delta-E=        0.040326579975 Rises=F Damp=T
 DIIS: error= 1.37D-02 at cycle   2 NSaved=   2.
 NSaved= 2 IEnMin= 1 EnMin= -567.730194351464     IErMin= 2 ErrMin= 1.37D-02
 ErrMax= 1.37D-02  0.00D+00 EMaxC= 1.00D-01 BMatC= 4.95D-02 BMatP= 2.23D-01
 IDIUse=3 WtCom= 8.63D-01 WtEn= 1.37D-01
 Coeff-Com:  0.189D+00 0.811D+00
 Coeff-En:   0.572D+00 0.428D+00
 Coeff:      0.241D+00 0.759D+00
 Gap=     0.042 Goal=   None    Shift=    0.000
 RMSDP=5.01D-03 MaxDP=9.65D-02 DE= 4.03D-02 OVMax= 4.46D-01

 Cycle   3  Pass 1  IDiag  1:
 RMSU=  4.69D-03    CP:  9.65D-01  5.87D-01
 E= -567.811537044412     Delta-E=       -0.121669272922 Rises=F Damp=F
 DIIS: error= 2.68D-02 at cycle   3 NSaved=   3.
 NSaved= 3 IEnMin= 3 EnMin= -567.811537044412     IErMin= 2 ErrMin= 1.37D-02
 ErrMax= 2.68D-02  0.00D+00 EMaxC= 1.00D-01 BMatC= 1.67D-01 BMatP= 4.95D-02
 IDIUse=2 WtCom= 0.00D+00 WtEn= 1.00D+00
 EnCoef did     2 forward-backward iterations
 Coeff-En:   0.193D+00 0.216D+00 0.590D+00
 Coeff:      0.193D+00 0.216D+00 0.590D+00
 Gap=     0.079 Goal=   None    Shift=    0.000
 RMSDP=7.11D-03 MaxDP=2.74D-01 DE=-1.22D-01 OVMax= 5.23D-01

 Cycle   4  Pass 1  IDiag  1:
 RMSU=  5.91D-03    CP:  9.57D-01  1.32D+00  4.41D-01
 E= -567.290935938137     Delta-E=        0.520601106275 Rises=F Damp=F
 DIIS: error= 6.53D-02 at cycle   4 NSaved=   4.
 NSaved= 4 IEnMin= 3 EnMin= -567.811537044412     IErMin= 2 ErrMin= 1.37D-02
 ErrMax= 6.53D-02  0.00D+00 EMaxC= 1.00D-01 BMatC= 7.46D-01 BMatP= 4.95D-02
 IDIUse=2 WtCom= 0.00D+00 WtEn= 1.00D+00
 EnCoef did     2 forward-backward iterations
 Coeff-En:   0.196D+00 0.000D+00 0.563D+00 0.241D+00
 Coeff:      0.196D+00 0.000D+00 0.563D+00 0.241D+00
 Gap=     0.092 Goal=   None    Shift=    0.000
 RMSDP=4.22D-03 MaxDP=1.51D-01 DE= 5.21D-01 OVMax= 3.04D-01

 Cycle   5  Pass 1  IDiag  1:
 RMSU=  1.32D-03    CP:  9.65D-01  7.11D-01  6.07D-01  4.81D-01
 E= -567.936355325431     Delta-E=       -0.645419387294 Rises=F Damp=F
 DIIS: error= 1.39D-02 at cycle   5 NSaved=   5.
 NSaved= 5 IEnMin= 5 EnMin= -567.936355325431     IErMin= 2 ErrMin= 1.37D-02
 ErrMax= 1.39D-02  0.00D+00 EMaxC= 1.00D-01 BMatC= 3.55D-02 BMatP= 4.95D-02
 IDIUse=3 WtCom= 8.61D-01 WtEn= 1.39D-01
 Coeff-Com:  0.524D-01-0.213D-01 0.252D+00-0.339D-01 0.751D+00
 Coeff-En:   0.000D+00 0.000D+00 0.228D+00 0.000D+00 0.772D+00
 Coeff:      0.451D-01-0.184D-01 0.249D+00-0.292D-01 0.754D+00
 Gap=     0.129 Goal=   None    Shift=    0.000
 RMSDP=1.24D-03 MaxDP=4.72D-02 DE=-6.45D-01 OVMax= 8.29D-02

 Cycle   6  Pass 1  IDiag  1:
 RMSU=  5.00D-04    CP:  9.64D-01  6.01D-01  6.98D-01  3.22D-01  9.28D-01
 E= -567.965763868303     Delta-E=       -0.029408542872 Rises=F Damp=F
 DIIS: error= 1.99D-03 at cycle   6 NSaved=   6.
 NSaved= 6 IEnMin= 6 EnMin= -567.965763868303     IErMin= 6 ErrMin= 1.99D-03
 ErrMax= 1.99D-03  0.00D+00 EMaxC= 1.00D-01 BMatC= 1.15D-03 BMatP= 3.55D-02
 IDIUse=3 WtCom= 9.80D-01 WtEn= 1.99D-02
 Coeff-Com: -0.495D-02 0.390D-01 0.120D+00-0.450D-01 0.414D+00 0.477D+00
 Coeff-En:   0.000D+00 0.000D+00 0.000D+00 0.000D+00 0.000D+00 0.100D+01
 Coeff:     -0.486D-02 0.382D-01 0.118D+00-0.441D-01 0.406D+00 0.487D+00
 Gap=     0.128 Goal=   None    Shift=    0.000
 RMSDP=3.34D-04 MaxDP=8.94D-03 DE=-2.94D-02 OVMax= 2.07D-02

 Cycle   7  Pass 1  IDiag  1:
 RMSU=  1.20D-04    CP:  9.64D-01  6.29D-01  7.03D-01  3.38D-01  9.21D-01
                    CP:  4.55D-01
 E= -567.966921055867     Delta-E=       -0.001157187564 Rises=F Damp=F
 DIIS: error= 4.42D-04 at cycle   7 NSaved=   7.
 NSaved= 7 IEnMin= 7 EnMin= -567.966921055867     IErMin= 7 ErrMin= 4.42D-04
 ErrMax= 4.42D-04  0.00D+00 EMaxC= 1.00D-01 BMatC= 6.69D-05 BMatP= 1.15D-03
 IDIUse=3 WtCom= 9.96D-01 WtEn= 4.42D-03
 Coeff-Com:  0.299D-03-0.230D-02 0.218D-02-0.336D-02 0.112D-01 0.184D+00
 Coeff-Com:  0.808D+00
 Coeff-En:   0.000D+00 0.000D+00 0.000D+00 0.000D+00 0.000D+00 0.470D-01
 Coeff-En:   0.953D+00
 Coeff:      0.298D-03-0.229D-02 0.217D-02-0.334D-02 0.112D-01 0.183D+00
 Coeff:      0.809D+00
 Gap=     0.129 Goal=   None    Shift=    0.000
 RMSDP=6.91D-05 MaxDP=1.40D-03 DE=-1.16D-03 OVMax= 2.45D-03

 Cycle   8  Pass 1  IDiag  1:
 RMSU=  3.73D-05    CP:  9.64D-01  6.24D-01  7.02D-01  3.37D-01  9.30D-01
                    CP:  5.60D-01  9.32D-01
 E= -567.966981612825     Delta-E=       -0.000060556958 Rises=F Damp=F
 DIIS: error= 1.80D-04 at cycle   8 NSaved=   8.
 NSaved= 8 IEnMin= 8 EnMin= -567.966981612825     IErMin= 8 ErrMin= 1.80D-04
 ErrMax= 1.80D-04  0.00D+00 EMaxC= 1.00D-01 BMatC= 7.14D-06 BMatP= 6.69D-05
 IDIUse=3 WtCom= 9.98D-01 WtEn= 1.80D-03
 Coeff-Com:  0.217D-02-0.335D-02-0.258D-02-0.684D-04-0.108D-01 0.536D-01
 Coeff-Com:  0.226D+00 0.736D+00
 Coeff-En:   0.000D+00 0.000D+00 0.000D+00 0.000D+00 0.000D+00 0.000D+00
 Coeff-En:   0.000D+00 0.100D+01
 Coeff:      0.217D-02-0.334D-02-0.257D-02-0.683D-04-0.108D-01 0.535D-01
 Coeff:      0.225D+00 0.736D+00
 Gap=     0.129 Goal=   None    Shift=    0.000
 RMSDP=1.45D-05 MaxDP=3.43D-04 DE=-6.06D-05 OVMax= 6.27D-04

 Cycle   9  Pass 1  IDiag  1:
 RMSU=  1.05D-05    CP:  9.64D-01  6.23D-01  7.02D-01  3.36D-01  9.32D-01
                    CP:  5.74D-01  9.33D-01  9.45D-01
 E= -567.966987098598     Delta-E=       -0.000005485773 Rises=F Damp=F
 DIIS: error= 9.90D-05 at cycle   9 NSaved=   9.
 NSaved= 9 IEnMin= 9 EnMin= -567.966987098598     IErMin= 9 ErrMin= 9.90D-05
 ErrMax= 9.90D-05  0.00D+00 EMaxC= 1.00D-01 BMatC= 1.69D-06 BMatP= 7.14D-06
 IDIUse=1 WtCom= 1.00D+00 WtEn= 0.00D+00
 Coeff-Com:  0.136D-02-0.128D-02-0.874D-03-0.282D-04-0.616D-02 0.499D-02
 Coeff-Com:  0.923D-02 0.166D+00 0.827D+00
 Coeff:      0.136D-02-0.128D-02-0.874D-03-0.282D-04-0.616D-02 0.499D-02
 Coeff:      0.923D-02 0.166D+00 0.827D+00
 Gap=     0.129 Goal=   None    Shift=    0.000
 RMSDP=7.72D-06 MaxDP=2.37D-04 DE=-5.49D-06 OVMax= 4.82D-04

 Cycle  10  Pass 1  IDiag  1:
 RMSU=  3.29D-06    CP:  9.64D-01  6.22D-01  7.02D-01  3.36D-01  9.32D-01
                    CP:  5.78D-01  9.28D-01  9.72D-01  1.10D+00
 E= -567.966988634905     Delta-E=       -0.000001536307 Rises=F Damp=F
 DIIS: error= 3.05D-05 at cycle  10 NSaved=  10.
 NSaved=10 IEnMin=10 EnMin= -567.966988634905     IErMin=10 ErrMin= 3.05D-05
 ErrMax= 3.05D-05  0.00D+00 EMaxC= 1.00D-01 BMatC= 1.26D-07 BMatP= 1.69D-06
 IDIUse=1 WtCom= 1.00D+00 WtEn= 0.00D+00
 Coeff-Com:  0.316D-03-0.199D-03-0.561D-04 0.199D-04-0.165D-02-0.212D-02
 Coeff-Com: -0.384D-02-0.455D-01 0.146D+00 0.907D+00
 Coeff:      0.316D-03-0.199D-03-0.561D-04 0.199D-04-0.165D-02-0.212D-02
 Coeff:     -0.384D-02-0.455D-01 0.146D+00 0.907D+00
 Gap=     0.130 Goal=   None    Shift=    0.000
 RMSDP=2.01D-06 MaxDP=8.94D-05 DE=-1.54D-06 OVMax= 1.35D-04

 Cycle  11  Pass 1  IDiag  1:
 RMSU=  8.41D-07    CP:  9.64D-01  6.22D-01  7.02D-01  3.35D-01  9.32D-01
                    CP:  5.79D-01  9.28D-01  9.66D-01  1.15D+00  9.64D-01
 E= -567.966988745709     Delta-E=       -0.000000110804 Rises=F Damp=F
 DIIS: error= 3.17D-06 at cycle  11 NSaved=  11.
 NSaved=11 IEnMin=11 EnMin= -567.966988745709     IErMin=11 ErrMin= 3.17D-06
 ErrMax= 3.17D-06  0.00D+00 EMaxC= 1.00D-01 BMatC= 2.02D-09 BMatP= 1.26D-07
 IDIUse=1 WtCom= 1.00D+00 WtEn= 0.00D+00
 Coeff-Com:  0.245D-04-0.237D-04 0.465D-05 0.130D-04-0.254D-03 0.232D-03
 Coeff-Com:  0.407D-02-0.188D-01-0.335D-01 0.268D+00 0.781D+00
 Coeff:      0.245D-04-0.237D-04 0.465D-05 0.130D-04-0.254D-03 0.232D-03
 Coeff:      0.407D-02-0.188D-01-0.335D-01 0.268D+00 0.781D+00
 Gap=     0.129 Goal=   None    Shift=    0.000
 RMSDP=4.05D-07 MaxDP=1.19D-05 DE=-1.11D-07 OVMax= 2.96D-05

 Cycle  12  Pass 1  IDiag  1:
 RMSU=  2.13D-07    CP:  9.64D-01  6.22D-01  7.02D-01  3.35D-01  9.32D-01
                    CP:  5.79D-01  9.27D-01  9.62D-01  1.15D+00  1.02D+00
                    CP:  8.58D-01
 E= -567.966988748018     Delta-E=       -0.000000002309 Rises=F Damp=F
 DIIS: error= 2.53D-07 at cycle  12 NSaved=  12.
 NSaved=12 IEnMin=12 EnMin= -567.966988748018     IErMin=12 ErrMin= 2.53D-07
 ErrMax= 2.53D-07  0.00D+00 EMaxC= 1.00D-01 BMatC= 1.32D-11 BMatP= 2.02D-09
 IDIUse=1 WtCom= 1.00D+00 WtEn= 0.00D+00
 Coeff-Com: -0.276D-05-0.127D-05-0.445D-05 0.462D-05-0.322D-04 0.220D-03
 Coeff-Com:  0.142D-02-0.135D-02-0.114D-01 0.202D-01 0.145D+00 0.846D+00
 Coeff:     -0.276D-05-0.127D-05-0.445D-05 0.462D-05-0.322D-04 0.220D-03
 Coeff:      0.142D-02-0.135D-02-0.114D-01 0.202D-01 0.145D+00 0.846D+00
 Gap=     0.129 Goal=   None    Shift=    0.000
 RMSDP=6.65D-08 MaxDP=2.14D-06 DE=-2.31D-09 OVMax= 4.81D-06

 Cycle  13  Pass 1  IDiag  1:
 RMSU=  3.42D-08    CP:  9.64D-01  6.22D-01  7.02D-01  3.35D-01  9.32D-01
                    CP:  5.79D-01  9.27D-01  9.61D-01  1.15D+00  1.02D+00
                    CP:  8.75D-01  9.38D-01
 E= -567.966988748034     Delta-E=       -0.000000000016 Rises=F Damp=F
 DIIS: error= 1.52D-07 at cycle  13 NSaved=  13.
 NSaved=13 IEnMin=13 EnMin= -567.966988748034     IErMin=13 ErrMin= 1.52D-07
 ErrMax= 1.52D-07  0.00D+00 EMaxC= 1.00D-01 BMatC= 5.25D-12 BMatP= 1.32D-11
 IDIUse=1 WtCom= 1.00D+00 WtEn= 0.00D+00
 Coeff-Com: -0.139D-05 0.106D-05-0.236D-05 0.703D-06-0.268D-05 0.302D-04
 Coeff-Com:  0.130D-03 0.519D-03 0.946D-04-0.328D-02-0.350D-02 0.849D-01
 Coeff-Com:  0.921D+00
 Coeff:     -0.139D-05 0.106D-05-0.236D-05 0.703D-06-0.268D-05 0.302D-04
 Coeff:      0.130D-03 0.519D-03 0.946D-04-0.328D-02-0.350D-02 0.849D-01
 Coeff:      0.921D+00
 Gap=     0.129 Goal=   None    Shift=    0.000
 RMSDP=1.17D-08 MaxDP=2.78D-07 DE=-1.60D-11 OVMax= 5.49D-07

 Cycle  14  Pass 1  IDiag  1:
 RMSU=  4.61D-09    CP:  9.64D-01  6.22D-01  7.02D-01  3.35D-01  9.32D-01
                    CP:  5.79D-01  9.27D-01  9.61D-01  1.15D+00  1.02D+00
                    CP:  8.75D-01  9.57D-01  1.06D+00
 E= -567.966988748047     Delta-E=       -0.000000000013 Rises=F Damp=F
 DIIS: error= 8.28D-08 at cycle  14 NSaved=  14.
 NSaved=14 IEnMin=14 EnMin= -567.966988748047     IErMin=14 ErrMin= 8.28D-08
 ErrMax= 8.28D-08  0.00D+00 EMaxC= 1.00D-01 BMatC= 1.23D-12 BMatP= 5.25D-12
 IDIUse=1 WtCom= 1.00D+00 WtEn= 0.00D+00
 Coeff-Com: -0.362D-06 0.384D-06-0.128D-06-0.462D-08 0.151D-05-0.604D-05
 Coeff-Com: -0.438D-04 0.959D-04 0.621D-03-0.187D-05-0.429D-02-0.275D-01
 Coeff-Com:  0.380D-01 0.993D+00
 Coeff:     -0.362D-06 0.384D-06-0.128D-06-0.462D-08 0.151D-05-0.604D-05
 Coeff:     -0.438D-04 0.959D-04 0.621D-03-0.187D-05-0.429D-02-0.275D-01
 Coeff:      0.380D-01 0.993D+00
 Gap=     0.129 Goal=   None    Shift=    0.000
 RMSDP=6.69D-09 MaxDP=2.08D-07 DE=-1.30D-11 OVMax= 4.51D-07

 SCF Done:  E(RB3LYP) =  -567.966988748     A.U. after   14 cycles
            NFock= 14  Conv=0.67D-08     -V/T= 2.0031
 KE= 5.662027576165D+02 PE=-1.666701352984D+03 EE= 3.712367820077D+02
 Leave Link  502 at Mon Sep 21 22:14:48 2015, MaxMem=    33554432 cpu:        44.3
 (Enter /group/hpc-share/gaussian/2009D/g09/l601.exe)
 Copying SCF densities to generalized density rwf, IOpCl= 0 IROHF=0.

 **********************************************************************

            Population analysis using the SCF density.

 **********************************************************************

 Orbital symmetries:
       Occupied  (A') (A') (A') (A') (A') (A') (A') (A") (A') (A')
                 (A') (A') (A') (A") (A') (A') (A") (A') (A") (A')
       Virtual   (A") (A') (A') (A') (A") (A') (A') (A') (A") (A")
                 (A') (A') (A') (A') (A") (A') (A') (A") (A') (A')
                 (A") (A') (A') (A') (A') (A") (A") (A') (A") (A')
                 (A') (A') (A") (A') (A") (A') (A') (A") (A') (A')
                 (A') (A") (A') (A") (A') (A') (A") (A') (A") (A')
                 (A") (A") (A') (A') (A') (A") (A') (A") (A') (A')
                 (A') (A") (A") (A') (A') (A") (A') (A') (A') (A")
                 (A') (A') (A") (A') (A') (A") (A') (A") (A') (A")
                 (A') (A') (A') (A") (A') (A') (A") (A') (A") (A')
                 (A") (A') (A') (A') (A') (A") (A') (A') (A") (A')
                 (A") (A') (A')
 The electronic state is 1-A'.
 Alpha  occ. eigenvalues --  -88.95571 -19.18864 -14.46769 -10.22985  -8.01892
 Alpha  occ. eigenvalues --   -5.98187  -5.97877  -5.97434  -1.06302  -0.90410
 Alpha  occ. eigenvalues --   -0.72368  -0.62921  -0.49803  -0.48717  -0.45760
 Alpha  occ. eigenvalues --   -0.41476  -0.40123  -0.35830  -0.28303  -0.26341
 Alpha virt. eigenvalues --   -0.13391  -0.03939  -0.00986   0.00769   0.01756
 Alpha virt. eigenvalues --    0.02357   0.05154   0.07173   0.07688   0.08379
 Alpha virt. eigenvalues --    0.08402   0.09928   0.10832   0.12375   0.12996
 Alpha virt. eigenvalues --    0.13799   0.15389   0.16465   0.17701   0.19003
 Alpha virt. eigenvalues --    0.19442   0.22074   0.22690   0.24769   0.26000
 Alpha virt. eigenvalues --    0.26236   0.28645   0.30761   0.32708   0.32777
 Alpha virt. eigenvalues --    0.37130   0.39568   0.40075   0.40500   0.42003
 Alpha virt. eigenvalues --    0.44839   0.46287   0.47358   0.48519   0.49620
 Alpha virt. eigenvalues --    0.52416   0.53502   0.55327   0.61688   0.61697
 Alpha virt. eigenvalues --    0.63739   0.65050   0.69440   0.72142   0.76142
 Alpha virt. eigenvalues --    0.76817   0.83659   0.83870   0.84584   0.86471
 Alpha virt. eigenvalues --    0.87606   0.88343   0.92441   0.92762   0.98562
 Alpha virt. eigenvalues --    1.01657   1.01800   1.04569   1.05607   1.06918
 Alpha virt. eigenvalues --    1.10485   1.12266   1.17264   1.23968   1.25359
 Alpha virt. eigenvalues --    1.32983   1.39488   1.42525   1.45334   1.55086
 Alpha virt. eigenvalues --    1.56450   1.63155   1.64163   1.72842   1.77647
 Alpha virt. eigenvalues --    1.84659   1.89037   1.92613   2.01762   2.02441
 Alpha virt. eigenvalues --    2.11348   2.22755   2.23589   2.24868   2.27672
 Alpha virt. eigenvalues --    2.31016   2.39413   2.47813   2.49676   2.51977
 Alpha virt. eigenvalues --    2.57847   2.78493   3.23234   3.24850   3.29996
 Alpha virt. eigenvalues --    3.41359   3.43298   3.63274
          Condensed to atoms (all electrons):
               1          2          3          4          5          6
     1  O    8.745346  -0.159325  -0.107881   0.045584  -0.000107   0.000215
     2  N   -0.159325   7.675903  -0.068209  -0.251095   0.083485  -0.063636
     3  S   -0.107881  -0.068209  15.785361   0.199055  -0.196937  -0.052755
     4  C    0.045584  -0.251095   0.199055   4.305988   0.233521   0.329734
     5  H   -0.000107   0.083485  -0.196937   0.233521   1.753156  -0.270049
     6  H    0.000215  -0.063636  -0.052755   0.329734  -0.270049   1.314976
     7  H    0.000215  -0.063636  -0.052755   0.329734  -0.270049  -0.112966
               7
     1  O    0.000215
     2  N   -0.063636
     3  S   -0.052755
     4  C    0.329734
     5  H   -0.270049
     6  H   -0.112966
     7  H    1.314976
 Mulliken charges:
               1
     1  O   -0.524047
     2  N   -0.153489
     3  S    0.494122
     4  C    0.807477
     5  H   -0.333022
     6  H   -0.145520
     7  H   -0.145520
 Sum of Mulliken charges =   0.00000
 Mulliken charges with hydrogens summed into heavy atoms:
               1
     1  O   -0.524047
     2  N   -0.153489
     3  S    0.494122
     4  C    0.183414
 Electronic spatial extent (au):  <R**2>=            338.8265
 Charge=              0.0000 electrons
 Dipole moment (field-independent basis, Debye):
    X=              3.2779    Y=              2.1361    Z=              0.0000  Tot=              3.9125
 Quadrupole moment (field-independent basis, Debye-Ang):
   XX=            -32.5412   YY=            -32.4891   ZZ=            -30.2031
   XY=             -2.2093   XZ=              0.0000   YZ=              0.0000
 Traceless Quadrupole moment (field-independent basis, Debye-Ang):
   XX=             -0.7967   YY=             -0.7447   ZZ=              1.5414
   XY=             -2.2093   XZ=              0.0000   YZ=              0.0000
 Octapole moment (field-independent basis, Debye-Ang**2):
  XXX=              5.0208  YYY=              4.1591  ZZZ=              0.0000  XYY=              3.2629
  XXY=              4.5624  XXZ=              0.0000  XZZ=             -0.5944  YZZ=             -2.0449
  YYZ=              0.0000  XYZ=              0.0000
 Hexadecapole moment (field-independent basis, Debye-Ang**3):
 XXXX=           -265.2098 YYYY=           -151.3621 ZZZZ=            -39.7479 XXXY=            -42.6941
 XXXZ=              0.0000 YYYX=            -41.1313 YYYZ=              0.0000 ZZZX=              0.0000
 ZZZY=              0.0000 XXYY=            -70.1849 XXZZ=            -48.2784 YYZZ=            -31.7218
 XXYZ=              0.0000 YYXZ=              0.0000 ZZXY=            -13.7371
 N-N= 1.612948246114D+02 E-N=-1.666701354620D+03  KE= 5.662027576165D+02
 Symmetry A'   KE= 5.214251409644D+02
 Symmetry A"   KE= 4.477761665210D+01
 No NMR shielding tensors so no spin-rotation constants.
 Leave Link  601 at Mon Sep 21 22:14:49 2015, MaxMem=    33554432 cpu:         1.6
 (Enter /group/hpc-share/gaussian/2009D/g09/l701.exe)
 Compute integral first derivatives.
 ... and contract with generalized density number  0.
 Leave Link  701 at Mon Sep 21 22:14:49 2015, MaxMem=    33554432 cpu:         1.2
 (Enter /group/hpc-share/gaussian/2009D/g09/l702.exe)
 L702 exits ... SP integral derivatives will be done elsewhere.
 Leave Link  702 at Mon Sep 21 22:14:49 2015, MaxMem=    33554432 cpu:         0.1
 (Enter /group/hpc-share/gaussian/2009D/g09/l703.exe)
 Compute integral first derivatives, UseDBF=F ICtDFT=           0.
 Integral derivatives from FoFJK, PRISM(SPDF).
 Calling FoFJK, ICntrl=      2127 FMM=F ISym2X=1 I1Cent= 0 IOpClX= 0 NMat=1 NMatS=1 NMatT=0.
 FoFJK:  IHMeth= 1 ICntrl=    2127 DoSepK=F KAlg= 0 I1Cent=   0 FoldK=F
 IRaf=         0 NMat=   1 IRICut=       1 DoRegI=T DoRafI=F ISym2E= 1.
 FoFCou: FMM=F IPFlag=           0 FMFlag=      100000 FMFlg1=         800
         NFxFlg=           0 DoJE=F BraDBF=F KetDBF=F FulRan=T
         wScrn=  0.000000 ICntrl=    2127 IOpCl=  0 I1Cent=           0 NGrid=           0
         NMat0=    1 NMatS0=      1 NMatT0=    0 NMatD0=    1 NMtDS0=    0 NMtDT0=    0
 Petite list used in FoFCou.
 Leave Link  703 at Mon Sep 21 22:14:50 2015, MaxMem=    33554432 cpu:         8.7
 (Enter /group/hpc-share/gaussian/2009D/g09/l716.exe)
 Dipole        = 1.28963521D+00 8.40417535D-01 2.22044605D-16
 ***** Axes restored to original set *****
 -------------------------------------------------------------------
 Center     Atomic                   Forces (Hartrees/Bohr)
 Number     Number              X              Y              Z
 -------------------------------------------------------------------
      1        8          -0.014514340    0.000000000    0.113963243
      2        7          -0.026394957    0.000000000   -0.216801903
      3       16           0.036186259    0.000000000   -0.015119335
      4        6           0.002483542    0.000000000    0.095057425
      5        1           0.001189982    0.000000000    0.011355746
      6        1           0.000524756    0.002106150    0.005772412
      7        1           0.000524756   -0.002106150    0.005772412
 -------------------------------------------------------------------
 Cartesian Forces:  Max     0.216801903 RMS     0.058425614
 Leave Link  716 at Mon Sep 21 22:14:50 2015, MaxMem=    33554432 cpu:         0.1
 (Enter /group/hpc-share/gaussian/2009D/g09/l103.exe)

 GradGradGradGradGradGradGradGradGradGradGradGradGradGradGradGradGradGrad
 Berny optimization.
 FormGI is forming the generalized inverse of G from B-inverse, IUseBI=4.
 Internal  Forces:  Max     0.217495679 RMS     0.065328489
 Search for a local minimum.
 Step number   1 out of a maximum of   28
 All quantities printed in internal units (Hartrees-Bohrs-Radians)
 RMS Force = .65328D-01 SwitMx=.10000D-02 MixMth= 1
 Mixed Optimization -- RFO/linear search
 Second derivative matrix not updated -- first step.
 The second derivative matrix:
                          R1        R2        R3        R4        R5
           R1           0.45621
           R2           0.00000   0.46672
           R3           0.00000   0.00000   0.34713
           R4           0.00000   0.00000   0.00000   0.34928
           R5           0.00000   0.00000   0.00000   0.00000   0.34928
           R6           0.00000   0.00000   0.00000   0.00000   0.00000
           A1           0.00000   0.00000   0.00000   0.00000   0.00000
           A2           0.00000   0.00000   0.00000   0.00000   0.00000
           A3           0.00000   0.00000   0.00000   0.00000   0.00000
           A4           0.00000   0.00000   0.00000   0.00000   0.00000
           A5           0.00000   0.00000   0.00000   0.00000   0.00000
           A6           0.00000   0.00000   0.00000   0.00000   0.00000
           A7           0.00000   0.00000   0.00000   0.00000   0.00000
           A8           0.00000   0.00000   0.00000   0.00000   0.00000
           D1           0.00000   0.00000   0.00000   0.00000   0.00000
           D2           0.00000   0.00000   0.00000   0.00000   0.00000
           D3           0.00000   0.00000   0.00000   0.00000   0.00000
           D4           0.00000   0.00000   0.00000   0.00000   0.00000
                          R6        A1        A2        A3        A4
           R6           0.34928
           A1           0.00000   0.25000
           A2           0.00000   0.00000   0.25000
           A3           0.00000   0.00000   0.00000   0.16000
           A4           0.00000   0.00000   0.00000   0.00000   0.16000
           A5           0.00000   0.00000   0.00000   0.00000   0.00000
           A6           0.00000   0.00000   0.00000   0.00000   0.00000
           A7           0.00000   0.00000   0.00000   0.00000   0.00000
           A8           0.00000   0.00000   0.00000   0.00000   0.00000
           D1           0.00000   0.00000   0.00000   0.00000   0.00000
           D2           0.00000   0.00000   0.00000   0.00000   0.00000
           D3           0.00000   0.00000   0.00000   0.00000   0.00000
           D4           0.00000   0.00000   0.00000   0.00000   0.00000
                          A5        A6        A7        A8        D1
           A5           0.16000
           A6           0.00000   0.16000
           A7           0.00000   0.00000   0.16000
           A8           0.00000   0.00000   0.00000   0.16000
           D1           0.00000   0.00000   0.00000   0.00000   0.02288
           D2           0.00000   0.00000   0.00000   0.00000   0.00000
           D3           0.00000   0.00000   0.00000   0.00000   0.00000
           D4           0.00000   0.00000   0.00000   0.00000   0.00000
                          D2        D3        D4
           D2           0.01561
           D3           0.00000   0.01561
           D4           0.00000   0.00000   0.01561
 ITU=  0
     Eigenvalues ---    0.01561   0.02288   0.10446   0.10446   0.16000
     Eigenvalues ---    0.16000   0.16000   0.25000   0.25000   0.34713
     Eigenvalues ---    0.34928   0.34928   0.34928   0.45621   0.46672
 RFO step:  Lambda=-1.65819725D-01 EMin= 1.56082885D-02
 Linear search not attempted -- first point.
 Maximum step size (   0.300) exceeded in Quadratic search.
    -- Step size scaled by   0.495
 Iteration  1 RMS(Cart)=  0.16998093 RMS(Int)=  0.01697239
 Iteration  2 RMS(Cart)=  0.04816879 RMS(Int)=  0.00073664
 Iteration  3 RMS(Cart)=  0.00115754 RMS(Int)=  0.00002251
 Iteration  4 RMS(Cart)=  0.00000013 RMS(Int)=  0.00002251
 ITry= 1 IFail=0 DXMaxC= 5.09D-01 DCOld= 1.00D+10 DXMaxT= 3.00D-01 DXLimC= 3.00D+00 Rises=F
 ClnCor:  largest displacement from symmetrization is 6.02D-10 for atom     2.
 Variable       Old X    -DE/DX   Delta X   Delta X   Delta X     New X
                                 (Linear)    (Quad)   (Total)
    R1        2.64562  -0.11396   0.00000  -0.09072  -0.09072   2.55489
    R2        3.07080   0.07284   0.00000   0.05702   0.05702   3.12783
    R3        3.23143   0.09724   0.00000   0.09387   0.09387   3.32530
    R4        2.05791   0.00965   0.00000   0.00928   0.00928   2.06719
    R5        2.05791   0.00159   0.00000   0.00153   0.00153   2.05944
    R6        2.05791   0.00159   0.00000   0.00153   0.00153   2.05944
    A1        1.91063   0.03838   0.00000   0.04571   0.04571   1.95634
    A2        1.34770   0.21750   0.00000   0.25900   0.25900   1.60670
    A3        1.91063   0.00532   0.00000   0.00755   0.00753   1.91816
    A4        1.91063   0.00492   0.00000   0.00775   0.00771   1.91834
    A5        1.91063   0.00492   0.00000   0.00775   0.00771   1.91834
    A6        1.91063  -0.00724   0.00000  -0.01154  -0.01156   1.89907
    A7        1.91063  -0.00724   0.00000  -0.01154  -0.01156   1.89907
    A8        1.91063  -0.00068   0.00000   0.00003  -0.00003   1.91061
    D1        3.14159   0.00000   0.00000   0.00000   0.00000   3.14159
    D2        3.14159   0.00000   0.00000   0.00000   0.00000   3.14159
    D3       -1.04720  -0.00260   0.00000  -0.00476  -0.00479  -1.05199
    D4        1.04720   0.00260   0.00000   0.00476   0.00479   1.05199
         Item               Value     Threshold  Converged?
 Maximum Force            0.217496     0.000450     NO 
 RMS     Force            0.065328     0.000300     NO 
 Maximum Displacement     0.509331     0.001800     NO 
 RMS     Displacement     0.215164     0.001200     NO 
 Predicted change in Energy=-6.924605D-02
 Lowest energy point so far.  Saving SCF results.
 GradGradGradGradGradGradGradGradGradGradGradGradGradGradGradGradGradGrad

 Leave Link  103 at Mon Sep 21 22:14:50 2015, MaxMem=    33554432 cpu:         0.2
 (Enter /group/hpc-share/gaussian/2009D/g09/l202.exe)
                          Input orientation:                          
 ---------------------------------------------------------------------
 Center     Atomic      Atomic             Coordinates (Angstroms)
 Number     Number       Type             X           Y           Z
 ---------------------------------------------------------------------
      1          8           0        0.089489    0.000000   -0.213489
      2          7           0       -0.057642    0.000000    1.130473
      3         16           0        1.399185    0.000000    1.916131
      4          6           0        0.620063    0.000000    3.493922
      5          1           0        1.377438    0.000000    4.283238
      6          1           0        0.000163    0.889819    3.601780
      7          1           0        0.000163   -0.889819    3.601780
 ---------------------------------------------------------------------
                    Distance matrix (angstroms):
                    1          2          3          4          5
     1  O    0.000000
     2  N    1.351992   0.000000
     3  S    2.500117   1.655175   0.000000
     4  C    3.745184   2.458693   1.759675   0.000000
     5  H    4.677539   3.464012   2.367207   1.093909   0.000000
     6  H    3.918678   2.627256   2.364414   1.089811   1.775683
     7  H    3.918678   2.627256   2.364414   1.089811   1.775683
                    6          7
     6  H    0.000000
     7  H    1.779637   0.000000
 Stoichiometry    CH3NOS
 Framework group  CS[SG(CHNOS),X(H2)]
 Deg. of freedom    10
 Full point group                 CS      NOp   2
 RotChk:  IX=0 Diff= 1.22D-01
 Largest Abelian subgroup         CS      NOp   2
 Largest concise Abelian subgroup CS      NOp   2
                         Standard orientation:                         
 ---------------------------------------------------------------------
 Center     Atomic      Atomic             Coordinates (Angstroms)
 Number     Number       Type             X           Y           Z
 ---------------------------------------------------------------------
      1          8           0       -1.731096   -1.076148    0.000000
      2          7           0       -0.393403   -0.880036    0.000000
      3         16           0        0.000000    0.727707    0.000000
      4          6           0        1.723161    0.371096    0.000000
      5          1           0        2.296274    1.302857    0.000000
      6          1           0        1.983674   -0.201654    0.889819
      7          1           0        1.983674   -0.201654   -0.889819
 ---------------------------------------------------------------------
 Rotational constants (GHZ):     20.2114476      3.9983462      3.4098913
 Leave Link  202 at Mon Sep 21 22:14:51 2015, MaxMem=    33554432 cpu:         0.0
 (Enter /group/hpc-share/gaussian/2009D/g09/l301.exe)
 Standard basis: Aug-CC-pVDZ (5D, 7F)
 Ernie: Thresh=  0.10000D-02 Tol=  0.10000D-05 Strict=F.
 Ernie:  16 primitive shells out of 149 were deleted.
 There are    91 symmetry adapted cartesian basis functions of A'  symmetry.
 There are    40 symmetry adapted cartesian basis functions of A"  symmetry.
 There are    83 symmetry adapted basis functions of A'  symmetry.
 There are    40 symmetry adapted basis functions of A"  symmetry.
   123 basis functions,   243 primitive gaussians,   131 cartesian basis functions
    20 alpha electrons       20 beta electrons
       nuclear repulsion energy       156.8263624173 Hartrees.
 IExCor=  402 DFT=T Ex+Corr=B3LYP ExCW=0 ScaHFX=  0.200000
 ScaDFX=  0.800000  0.720000  1.000000  0.810000 ScalE2=  1.000000  1.000000
 IRadAn=      0 IRanWt=     -1 IRanGd=            0 ICorTp=0 IEmpDi=  4
 NAtoms=    7 NActive=    7 NUniq=    6 SFac= 1.36D+00 NAtFMM=   60 NAOKFM=F Big=F
 Integral buffers will be    131072 words long.
 Raffenetti 2 integral format.
 Two-electron integral symmetry is turned on.
 Leave Link  301 at Mon Sep 21 22:14:51 2015, MaxMem=    33554432 cpu:         0.5
 (Enter /group/hpc-share/gaussian/2009D/g09/l302.exe)
 NPDir=0 NMtPBC=     1 NCelOv=     1 NCel=       1 NClECP=     1 NCelD=      1
         NCelK=      1 NCelE2=     1 NClLst=     1 CellRange=     0.0.
 One-electron integrals computed using PRISM.
 One-electron integral symmetry used in STVInt
 NBasis=   123 RedAO= T EigKep=  4.46D-04  NBF=    83    40
 NBsUse=   123 1.00D-06 EigRej= -1.00D+00 NBFU=    83    40
 Precomputing XC quadrature grid using
 IXCGrd= 4 IRadAn=           0 IRanWt=          -1 IRanGd=           0 AccXCQ= 0.00D+00.
 Generated NRdTot=       0 NPtTot=           0 NUsed=           0 NTot=          32
 NSgBfM=   131   131   131   131   131 MxSgAt=     7 MxSgA2=     7.
 Leave Link  302 at Mon Sep 21 22:14:52 2015, MaxMem=    33554432 cpu:         1.6
 (Enter /group/hpc-share/gaussian/2009D/g09/l303.exe)
 DipDrv:  MaxL=1.
 Leave Link  303 at Mon Sep 21 22:14:52 2015, MaxMem=    33554432 cpu:         0.3
 (Enter /group/hpc-share/gaussian/2009D/g09/l401.exe)
 Initial guess from the checkpoint file:  "trans-mesno.chk"
 B after Tr=     0.000000    0.000000    0.000000
         Rot=    0.999743    0.000000    0.000000   -0.022662 Ang=  -2.60 deg.
 Guess basis will be translated and rotated to current coordinates.
 JPrj=2 DoOrth=T DoCkMO=T.
 Initial guess orbital symmetries:
       Occupied  (A') (A') (A') (A') (A') (A') (A') (A") (A') (A')
                 (A') (A') (A') (A") (A') (A') (A") (A') (A") (A')
       Virtual   (A') (A') (A') (A') (A') (A') (A') (A') (A') (A')
                 (A') (A') (A') (A') (A') (A') (A') (A') (A') (A')
                 (A') (A') (A') (A') (A') (A') (A') (A') (A') (A')
                 (A') (A') (A') (A') (A') (A') (A') (A') (A') (A')
                 (A') (A') (A') (A') (A') (A') (A') (A') (A') (A')
                 (A') (A') (A') (A') (A') (A') (A') (A') (A') (A')
                 (A') (A') (A') (A') (A') (A') (A') (A") (A") (A")
                 (A") (A") (A") (A") (A") (A") (A") (A") (A") (A")
                 (A") (A") (A") (A") (A") (A") (A") (A") (A") (A")
                 (A") (A") (A") (A") (A") (A") (A") (A") (A") (A")
                 (A") (A") (A")
 The electronic state of the initial guess is 1-A'.
 Generating alternative initial guess.
 ExpMin= 2.97D-02 ExpMax= 1.11D+05 ExpMxC= 1.07D+03 IAcc=3 IRadAn=         5 AccDes= 0.00D+00
 Harris functional with IExCor=  402 and IRadAn=       5 diagonalized for initial guess.
 HarFok:  IExCor=  402 AccDes= 0.00D+00 IRadAn=         5 IDoV= 1 UseB2=F ITyADJ=14
 ICtDFT=  3500011 ScaDFX=  1.000000  1.000000  1.000000  1.000000
 FoFCou: FMM=F IPFlag=           0 FMFlag=      100000 FMFlg1=           0
         NFxFlg=           0 DoJE=T BraDBF=F KetDBF=T FulRan=T
         wScrn=  0.000000 ICntrl=     500 IOpCl=  0 I1Cent=   200000004 NGrid=           0
         NMat0=    1 NMatS0=      1 NMatT0=    0 NMatD0=    1 NMtDS0=    0 NMtDT0=    0
 Petite list used in FoFCou.
 Harris En= -568.003983158004    
 Leave Link  401 at Mon Sep 21 22:14:52 2015, MaxMem=    33554432 cpu:         3.4
 (Enter /group/hpc-share/gaussian/2009D/g09/l502.exe)
 Closed shell SCF:
 Using DIIS extrapolation, IDIIS=  1040.
 Integral symmetry usage will be decided dynamically.
 IVT=       72237 IEndB=       72237 NGot=    33554432 MDV=    33516128
 LenX=    33516128 LenY=    33498526
 Requested convergence on RMS density matrix=1.00D-08 within 128 cycles.
 Requested convergence on MAX density matrix=1.00D-06.
 Requested convergence on             energy=1.00D-06.
 No special actions if energy rises.
 Fock matrices will be formed incrementally for  20 cycles.

 Cycle   1  Pass 1  IDiag  1:
 FoFJK:  IHMeth= 1 ICntrl=       0 DoSepK=F KAlg= 0 I1Cent=   0 FoldK=F
 IRaf= 990000000 NMat=   1 IRICut=       1 DoRegI=T DoRafI=F ISym2E= 1.
 FoFCou: FMM=F IPFlag=           0 FMFlag=      100000 FMFlg1=           0
         NFxFlg=           0 DoJE=F BraDBF=F KetDBF=F FulRan=T
         wScrn=  0.000000 ICntrl=       0 IOpCl=  0 I1Cent=           0 NGrid=           0
         NMat0=    1 NMatS0=      1 NMatT0=    0 NMatD0=    1 NMtDS0=    0 NMtDT0=    0
 Petite list used in FoFCou.
 E= -567.989574013108    
 DIIS: error= 1.31D-02 at cycle   1 NSaved=   1.
 NSaved= 1 IEnMin= 1 EnMin= -567.989574013108     IErMin= 1 ErrMin= 1.31D-02
 ErrMax= 1.31D-02  0.00D+00 EMaxC= 1.00D-01 BMatC= 2.71D-02 BMatP= 2.71D-02
 IDIUse=3 WtCom= 8.69D-01 WtEn= 1.31D-01
 Coeff-Com:  0.100D+01
 Coeff-En:   0.100D+01
 Coeff:      0.100D+01
 Recover alternate guess density for next cycle.
 RMSDP=5.10D-03 MaxDP=1.17D-01              OVMax= 0.00D+00

 Cycle   2  Pass 1  IDiag  1:
 RMSU=  5.10D-03    CP:  1.00D+00
 E= -567.820950327783     Delta-E=        0.168623685325 Rises=F Damp=F
 Switch densities from cycles 1 and 2 for lowest energy.
 DIIS: error= 2.52D-02 at cycle   2 NSaved=   2.
 NSaved= 2 IEnMin= 1 EnMin= -567.989574013108     IErMin= 1 ErrMin= 1.31D-02
 ErrMax= 2.52D-02  0.00D+00 EMaxC= 1.00D+00 BMatC= 1.92D-01 BMatP= 2.71D-02
 IDIUse=1 WtCom= 1.00D+00 WtEn= 0.00D+00
 Coeff-Com:  0.864D+00 0.136D+00
 Coeff:      0.864D+00 0.136D+00
 Gap=     0.404 Goal=   None    Shift=    0.000
 RMSDP=2.76D-03 MaxDP=6.12D-02 DE= 1.69D-01 OVMax= 6.08D-02

 Cycle   3  Pass 1  IDiag  1:
 RMSU=  2.63D-03    CP:  9.90D-01  1.56D-01
 E= -567.998442458022     Delta-E=       -0.177492130239 Rises=F Damp=F
 DIIS: error= 1.02D-02 at cycle   3 NSaved=   3.
 NSaved= 3 IEnMin= 3 EnMin= -567.998442458022     IErMin= 3 ErrMin= 1.02D-02
 ErrMax= 1.02D-02  0.00D+00 EMaxC= 1.00D+00 BMatC= 2.00D-02 BMatP= 2.71D-02
 IDIUse=1 WtCom= 1.00D+00 WtEn= 0.00D+00
 Coeff-Com:  0.776D-01 0.215D+00 0.708D+00
 Coeff:      0.776D-01 0.215D+00 0.708D+00
 Gap=     0.141 Goal=   None    Shift=    0.000
 RMSDP=1.31D-03 MaxDP=5.76D-02 DE=-1.77D-01 OVMax= 9.50D-02

 Cycle   4  Pass 1  IDiag  1:
 RMSU=  9.69D-04    CP:  9.88D-01  2.91D-01  7.95D-01
 E= -568.009106921023     Delta-E=       -0.010664463001 Rises=F Damp=F
 DIIS: error= 7.49D-03 at cycle   4 NSaved=   4.
 NSaved= 4 IEnMin= 4 EnMin= -568.009106921023     IErMin= 4 ErrMin= 7.49D-03
 ErrMax= 7.49D-03  0.00D+00 EMaxC= 1.00D+00 BMatC= 9.37D-03 BMatP= 2.00D-02
 IDIUse=1 WtCom= 1.00D+00 WtEn= 0.00D+00
 Coeff-Com: -0.455D-02 0.117D+00 0.513D+00 0.375D+00
 Coeff:     -0.455D-02 0.117D+00 0.513D+00 0.375D+00
 Gap=     0.134 Goal=   None    Shift=    0.000
 RMSDP=5.63D-04 MaxDP=2.06D-02 DE=-1.07D-02 OVMax= 3.10D-02

 Cycle   5  Pass 1  IDiag  1:
 RMSU=  3.62D-04    CP:  9.88D-01  2.90D-01  8.43D-01  5.76D-01
 E= -568.016656045262     Delta-E=       -0.007549124239 Rises=F Damp=F
 DIIS: error= 1.06D-03 at cycle   5 NSaved=   5.
 NSaved= 5 IEnMin= 5 EnMin= -568.016656045262     IErMin= 5 ErrMin= 1.06D-03
 ErrMax= 1.06D-03  0.00D+00 EMaxC= 1.00D+00 BMatC= 2.34D-04 BMatP= 9.37D-03
 IDIUse=1 WtCom= 1.00D+00 WtEn= 0.00D+00
 Coeff-Com: -0.228D-02 0.231D-01 0.147D+00 0.180D+00 0.652D+00
 Coeff:     -0.228D-02 0.231D-01 0.147D+00 0.180D+00 0.652D+00
 Gap=     0.135 Goal=   None    Shift=    0.000
 RMSDP=1.81D-04 MaxDP=5.88D-03 DE=-7.55D-03 OVMax= 1.09D-02

 Cycle   6  Pass 1  IDiag  1:
 RMSU=  1.13D-04    CP:  9.89D-01  2.79D-01  8.59D-01  5.43D-01  6.74D-01
 E= -568.016771067555     Delta-E=       -0.000115022292 Rises=F Damp=F
 DIIS: error= 6.07D-04 at cycle   6 NSaved=   6.
 NSaved= 6 IEnMin= 6 EnMin= -568.016771067555     IErMin= 6 ErrMin= 6.07D-04
 ErrMax= 6.07D-04  0.00D+00 EMaxC= 1.00D+00 BMatC= 1.17D-04 BMatP= 2.34D-04
 IDIUse=1 WtCom= 1.00D+00 WtEn= 0.00D+00
 Coeff-Com: -0.245D-02 0.209D-02 0.359D-01 0.827D-01 0.474D+00 0.408D+00
 Coeff:     -0.245D-02 0.209D-02 0.359D-01 0.827D-01 0.474D+00 0.408D+00
 Gap=     0.135 Goal=   None    Shift=    0.000
 RMSDP=9.60D-05 MaxDP=2.31D-03 DE=-1.15D-04 OVMax= 5.57D-03

 Cycle   7  Pass 1  IDiag  1:
 RMSU=  4.14D-05    CP:  9.88D-01  2.83D-01  8.53D-01  5.82D-01  7.58D-01
                    CP:  4.14D-01
 E= -568.016897034756     Delta-E=       -0.000125967201 Rises=F Damp=F
 DIIS: error= 8.32D-05 at cycle   7 NSaved=   7.
 NSaved= 7 IEnMin= 7 EnMin= -568.016897034756     IErMin= 7 ErrMin= 8.32D-05
 ErrMax= 8.32D-05  0.00D+00 EMaxC= 1.00D+00 BMatC= 1.43D-06 BMatP= 1.17D-04
 IDIUse=1 WtCom= 1.00D+00 WtEn= 0.00D+00
 Coeff-Com: -0.331D-03-0.119D-02 0.303D-03 0.156D-01 0.136D+00 0.161D+00
 Coeff-Com:  0.689D+00
 Coeff:     -0.331D-03-0.119D-02 0.303D-03 0.156D-01 0.136D+00 0.161D+00
 Coeff:      0.689D+00
 Gap=     0.135 Goal=   None    Shift=    0.000
 RMSDP=1.28D-05 MaxDP=2.22D-04 DE=-1.26D-04 OVMax= 5.67D-04

 Cycle   8  Pass 1  IDiag  1:
 RMSU=  7.44D-06    CP:  9.88D-01  2.83D-01  8.54D-01  5.80D-01  7.70D-01
                    CP:  4.63D-01  8.26D-01
 E= -568.016898740571     Delta-E=       -0.000001705814 Rises=F Damp=F
 DIIS: error= 1.35D-05 at cycle   8 NSaved=   8.
 NSaved= 8 IEnMin= 8 EnMin= -568.016898740571     IErMin= 8 ErrMin= 1.35D-05
 ErrMax= 1.35D-05  0.00D+00 EMaxC= 1.00D+00 BMatC= 4.12D-08 BMatP= 1.43D-06
 IDIUse=1 WtCom= 1.00D+00 WtEn= 0.00D+00
 Coeff-Com: -0.148D-04-0.395D-03-0.136D-02 0.155D-02 0.234D-01 0.232D-01
 Coeff-Com:  0.173D+00 0.780D+00
 Coeff:     -0.148D-04-0.395D-03-0.136D-02 0.155D-02 0.234D-01 0.232D-01
 Coeff:      0.173D+00 0.780D+00
 Gap=     0.135 Goal=   None    Shift=    0.000
 RMSDP=2.45D-06 MaxDP=5.56D-05 DE=-1.71D-06 OVMax= 1.05D-04

 Cycle   9  Pass 1  IDiag  1:
 RMSU=  1.77D-06    CP:  9.88D-01  2.83D-01  8.53D-01  5.81D-01  7.72D-01
                    CP:  4.58D-01  8.56D-01  1.00D+00
 E= -568.016898794479     Delta-E=       -0.000000053909 Rises=F Damp=F
 DIIS: error= 2.74D-06 at cycle   9 NSaved=   9.
 NSaved= 9 IEnMin= 9 EnMin= -568.016898794479     IErMin= 9 ErrMin= 2.74D-06
 ErrMax= 2.74D-06  0.00D+00 EMaxC= 1.00D+00 BMatC= 2.21D-09 BMatP= 4.12D-08
 IDIUse=1 WtCom= 1.00D+00 WtEn= 0.00D+00
 Coeff-Com:  0.187D-04-0.110D-04-0.384D-03-0.107D-02-0.491D-02-0.857D-02
 Coeff-Com: -0.157D-01 0.172D+00 0.859D+00
 Coeff:      0.187D-04-0.110D-04-0.384D-03-0.107D-02-0.491D-02-0.857D-02
 Coeff:     -0.157D-01 0.172D+00 0.859D+00
 Gap=     0.135 Goal=   None    Shift=    0.000
 RMSDP=7.35D-07 MaxDP=1.75D-05 DE=-5.39D-08 OVMax= 2.98D-05

 Cycle  10  Pass 1  IDiag  1:
 RMSU=  2.95D-07    CP:  9.88D-01  2.83D-01  8.53D-01  5.81D-01  7.73D-01
                    CP:  4.58D-01  8.65D-01  1.07D+00  9.79D-01
 E= -568.016898797368     Delta-E=       -0.000000002889 Rises=F Damp=F
 DIIS: error= 4.18D-07 at cycle  10 NSaved=  10.
 NSaved=10 IEnMin=10 EnMin= -568.016898797368     IErMin=10 ErrMin= 4.18D-07
 ErrMax= 4.18D-07  0.00D+00 EMaxC= 1.00D+00 BMatC= 4.78D-11 BMatP= 2.21D-09
 IDIUse=1 WtCom= 1.00D+00 WtEn= 0.00D+00
 Coeff-Com:  0.392D-05 0.891D-05-0.214D-04-0.155D-03-0.102D-02-0.173D-02
 Coeff-Com: -0.593D-02-0.439D-02 0.721D-01 0.941D+00
 Coeff:      0.392D-05 0.891D-05-0.214D-04-0.155D-03-0.102D-02-0.173D-02
 Coeff:     -0.593D-02-0.439D-02 0.721D-01 0.941D+00
 Gap=     0.135 Goal=   None    Shift=    0.000
 RMSDP=1.43D-07 MaxDP=3.21D-06 DE=-2.89D-09 OVMax= 7.05D-06

 Cycle  11  Pass 1  IDiag  1:
 RMSU=  6.05D-08    CP:  9.88D-01  2.83D-01  8.53D-01  5.81D-01  7.73D-01
                    CP:  4.58D-01  8.66D-01  1.07D+00  1.01D+00  1.14D+00
 E= -568.016898797436     Delta-E=       -0.000000000068 Rises=F Damp=F
 DIIS: error= 2.35D-07 at cycle  11 NSaved=  11.
 NSaved=11 IEnMin=11 EnMin= -568.016898797436     IErMin=11 ErrMin= 2.35D-07
 ErrMax= 2.35D-07  0.00D+00 EMaxC= 1.00D+00 BMatC= 7.16D-12 BMatP= 4.78D-11
 IDIUse=1 WtCom= 1.00D+00 WtEn= 0.00D+00
 Coeff-Com:  0.106D-05 0.258D-05 0.141D-05 0.438D-05-0.123D-03-0.181D-03
 Coeff-Com: -0.116D-02-0.794D-02-0.129D-01 0.274D+00 0.748D+00
 Coeff:      0.106D-05 0.258D-05 0.141D-05 0.438D-05-0.123D-03-0.181D-03
 Coeff:     -0.116D-02-0.794D-02-0.129D-01 0.274D+00 0.748D+00
 Gap=     0.135 Goal=   None    Shift=    0.000
 RMSDP=2.80D-08 MaxDP=4.56D-07 DE=-6.84D-11 OVMax= 1.02D-06

 Cycle  12  Pass 1  IDiag  1:
 RMSU=  1.60D-08    CP:  9.88D-01  2.83D-01  8.53D-01  5.81D-01  7.73D-01
                    CP:  4.58D-01  8.66D-01  1.08D+00  1.01D+00  1.18D+00
                    CP:  8.66D-01
 E= -568.016898797442     Delta-E=       -0.000000000005 Rises=F Damp=F
 DIIS: error= 4.95D-08 at cycle  12 NSaved=  12.
 NSaved=12 IEnMin=12 EnMin= -568.016898797442     IErMin=12 ErrMin= 4.95D-08
 ErrMax= 4.95D-08  0.00D+00 EMaxC= 1.00D+00 BMatC= 6.04D-13 BMatP= 7.16D-12
 IDIUse=1 WtCom= 1.00D+00 WtEn= 0.00D+00
 Coeff-Com:  0.328D-07 0.126D-06 0.590D-06 0.172D-04 0.490D-04 0.907D-04
 Coeff-Com:  0.116D-03-0.224D-02-0.100D-01 0.133D-01 0.221D+00 0.777D+00
 Coeff:      0.328D-07 0.126D-06 0.590D-06 0.172D-04 0.490D-04 0.907D-04
 Coeff:      0.116D-03-0.224D-02-0.100D-01 0.133D-01 0.221D+00 0.777D+00
 Gap=     0.135 Goal=   None    Shift=    0.000
 RMSDP=6.76D-09 MaxDP=1.31D-07 DE=-5.46D-12 OVMax= 2.83D-07

 SCF Done:  E(RB3LYP) =  -568.016898797     A.U. after   12 cycles
            NFock= 12  Conv=0.68D-08     -V/T= 2.0037
 KE= 5.659355432361D+02 PE=-1.657563041641D+03 EE= 3.667842371900D+02
 Leave Link  502 at Mon Sep 21 22:14:57 2015, MaxMem=    33554432 cpu:        38.0
 (Enter /group/hpc-share/gaussian/2009D/g09/l701.exe)
 Compute integral first derivatives.
 ... and contract with generalized density number  0.
 Leave Link  701 at Mon Sep 21 22:14:58 2015, MaxMem=    33554432 cpu:         1.6
 (Enter /group/hpc-share/gaussian/2009D/g09/l702.exe)
 L702 exits ... SP integral derivatives will be done elsewhere.
 Leave Link  702 at Mon Sep 21 22:14:58 2015, MaxMem=    33554432 cpu:         0.2
 (Enter /group/hpc-share/gaussian/2009D/g09/l703.exe)
 Compute integral first derivatives, UseDBF=F ICtDFT=           0.
 Integral derivatives from FoFJK, PRISM(SPDF).
 Calling FoFJK, ICntrl=      2127 FMM=F ISym2X=1 I1Cent= 0 IOpClX= 0 NMat=1 NMatS=1 NMatT=0.
 FoFJK:  IHMeth= 1 ICntrl=    2127 DoSepK=F KAlg= 0 I1Cent=   0 FoldK=F
 IRaf=         0 NMat=   1 IRICut=       1 DoRegI=T DoRafI=F ISym2E= 1.
 FoFCou: FMM=F IPFlag=           0 FMFlag=      100000 FMFlg1=         800
         NFxFlg=           0 DoJE=F BraDBF=F KetDBF=F FulRan=T
         wScrn=  0.000000 ICntrl=    2127 IOpCl=  0 I1Cent=           0 NGrid=           0
         NMat0=    1 NMatS0=      1 NMatT0=    0 NMatD0=    1 NMtDS0=    0 NMtDT0=    0
 Petite list used in FoFCou.
 Leave Link  703 at Mon Sep 21 22:15:00 2015, MaxMem=    33554432 cpu:         8.7
 (Enter /group/hpc-share/gaussian/2009D/g09/l716.exe)
 Dipole        = 1.42476268D+00 8.62094359D-01 2.22044605D-16
 ***** Axes restored to original set *****
 -------------------------------------------------------------------
 Center     Atomic                   Forces (Hartrees/Bohr)
 Number     Number              X              Y              Z
 -------------------------------------------------------------------
      1        8          -0.016347152    0.000000000    0.107451811
      2        7          -0.003484632    0.000000000   -0.136528323
      3       16           0.025040087    0.000000000   -0.004784483
      4        6          -0.004548538    0.000000000    0.030818419
      5        1           0.002642413    0.000000000    0.000833517
      6        1          -0.001651088    0.003451366    0.001104529
      7        1          -0.001651088   -0.003451366    0.001104529
 -------------------------------------------------------------------
 Cartesian Forces:  Max     0.136528323 RMS     0.039112171
 Leave Link  716 at Mon Sep 21 22:15:00 2015, MaxMem=    33554432 cpu:         0.2
 (Enter /group/hpc-share/gaussian/2009D/g09/l103.exe)

 GradGradGradGradGradGradGradGradGradGradGradGradGradGradGradGradGradGrad
 Berny optimization.
 Using GEDIIS/GDIIS optimizer.
 FormGI is forming the generalized inverse of G from B-inverse, IUseBI=4.
 Internal  Forces:  Max     0.108592112 RMS     0.029382490
 Search for a local minimum.
 Step number   2 out of a maximum of   28
 All quantities printed in internal units (Hartrees-Bohrs-Radians)
 RMS Force = .29382D-01 SwitMx=.10000D-02 MixMth= 1
 Mixed Optimization -- RFO/linear search
 Update second derivatives using D2CorX and points    1    2
 DE= -4.99D-02 DEPred=-6.92D-02 R= 7.21D-01
 TightC=F SS=  1.41D+00  RLast= 3.00D-01 DXNew= 5.0454D-01 9.0022D-01
 Trust test= 7.21D-01 RLast= 3.00D-01 DXMaxT set to 5.05D-01
 The second derivative matrix:
                          R1        R2        R3        R4        R5
           R1           0.39013
           R2           0.03888   0.46967
           R3           0.04631   0.01362   0.37935
           R4           0.00453   0.00194   0.00411   0.34980
           R5           0.00108  -0.00222  -0.00327  -0.00036   0.34936
           R6           0.00108  -0.00222  -0.00327  -0.00036   0.00008
           A1           0.01585   0.00778   0.01597   0.00196  -0.00131
           A2           0.08727   0.06386   0.12115   0.01456  -0.00850
           A3           0.00117   0.00471   0.00773   0.00088  -0.00035
           A4           0.00163   0.00148   0.00272   0.00032  -0.00018
           A5           0.00163   0.00148   0.00272   0.00032  -0.00018
           A6          -0.00230  -0.00335  -0.00583  -0.00068   0.00033
           A7          -0.00230  -0.00335  -0.00583  -0.00068   0.00033
           A8           0.00011  -0.00093  -0.00145  -0.00016   0.00005
           D1           0.00000   0.00000   0.00000   0.00000   0.00000
           D2           0.00000   0.00000   0.00000   0.00000   0.00000
           D3           0.00002  -0.00102  -0.00160  -0.00018   0.00006
           D4          -0.00002   0.00102   0.00160   0.00018  -0.00006
                          R6        A1        A2        A3        A4
           R6           0.34936
           A1          -0.00131   0.25753
           A2          -0.00850   0.05539   0.64872
           A3          -0.00035   0.00330   0.02254   0.16111
           A4          -0.00018   0.00123   0.00874   0.00048   0.16019
           A5          -0.00018   0.00123   0.00874   0.00048   0.00019
           A6           0.00033  -0.00256  -0.01793  -0.00094  -0.00039
           A7           0.00033  -0.00256  -0.01793  -0.00094  -0.00039
           A8           0.00005  -0.00060  -0.00401  -0.00018  -0.00008
           D1           0.00000   0.00000   0.00000   0.00000   0.00000
           D2           0.00000   0.00000   0.00000   0.00000   0.00000
           D3           0.00006  -0.00067  -0.00450  -0.00021  -0.00010
           D4          -0.00006   0.00067   0.00450   0.00021   0.00010
                          A5        A6        A7        A8        D1
           A5           0.16019
           A6          -0.00039   0.16078
           A7          -0.00039   0.00078   0.16078
           A8          -0.00008   0.00016   0.00016   0.16003
           D1           0.00000   0.00000   0.00000   0.00000   0.02288
           D2           0.00000   0.00000   0.00000   0.00000   0.00000
           D3          -0.00010   0.00018   0.00018   0.00003   0.00000
           D4           0.00010  -0.00018  -0.00018  -0.00003   0.00000
                          D2        D3        D4
           D2           0.01561
           D3           0.00000   0.01565
           D4           0.00000  -0.00004   0.01565
 ITU=  1  0
 Use linear search instead of GDIIS.
 Linear search step of   0.600 exceeds DXMaxT=   0.505 but not scaled.
 Quartic linear search produced a step of  2.00000.
 Iteration  1 RMS(Cart)=  0.18104181 RMS(Int)=  0.07811117
 Iteration  2 RMS(Cart)=  0.14426837 RMS(Int)=  0.03168615
 Iteration  3 RMS(Cart)=  0.08668843 RMS(Int)=  0.00309729
 Iteration  4 RMS(Cart)=  0.00490389 RMS(Int)=  0.00013230
 Iteration  5 RMS(Cart)=  0.00000084 RMS(Int)=  0.00013230
 ITry= 1 IFail=0 DXMaxC= 9.25D-01 DCOld= 1.00D+10 DXMaxT= 5.05D-01 DXLimC= 3.00D+00 Rises=F
 ClnCor:  largest displacement from symmetrization is 8.62D-09 for atom     7.
 Variable       Old X    -DE/DX   Delta X   Delta X   Delta X     New X
                                 (Linear)    (Quad)   (Total)
    R1        2.55489  -0.10859  -0.18144   0.00000  -0.18144   2.37345
    R2        3.12783   0.03125   0.11405   0.00000   0.11405   3.24187
    R3        3.32530   0.03267   0.18774   0.00000   0.18774   3.51305
    R4        2.06719   0.00243   0.01855   0.00000   0.01855   2.08574
    R5        2.05944   0.00387   0.00306   0.00000   0.00306   2.06251
    R6        2.05944   0.00387   0.00306   0.00000   0.00306   2.06251
    A1        1.95634   0.01164   0.09142   0.00000   0.09142   2.04776
    A2        1.60670   0.03897   0.51801   0.00000   0.51801   2.12471
    A3        1.91816  -0.00281   0.01506   0.00000   0.01493   1.93310
    A4        1.91834   0.00116   0.01542   0.00000   0.01518   1.93352
    A5        1.91834   0.00116   0.01542   0.00000   0.01518   1.93352
    A6        1.89907  -0.00006  -0.02312   0.00000  -0.02325   1.87582
    A7        1.89907  -0.00006  -0.02312   0.00000  -0.02325   1.87582
    A8        1.91061   0.00060  -0.00005   0.00000  -0.00038   1.91023
    D1        3.14159   0.00000   0.00000   0.00000   0.00000   3.14159
    D2        3.14159   0.00000   0.00000   0.00000   0.00000   3.14159
    D3       -1.05199  -0.00111  -0.00958   0.00000  -0.00974  -1.06172
    D4        1.05199   0.00111   0.00958   0.00000   0.00974   1.06172
         Item               Value     Threshold  Converged?
 Maximum Force            0.108592     0.000450     NO 
 RMS     Force            0.029382     0.000300     NO 
 Maximum Displacement     0.924579     0.001800     NO 
 RMS     Displacement     0.391684     0.001200     NO 
 Predicted change in Energy=-6.273921D-02
 Lowest energy point so far.  Saving SCF results.
 GradGradGradGradGradGradGradGradGradGradGradGradGradGradGradGradGradGrad

 Leave Link  103 at Mon Sep 21 22:15:00 2015, MaxMem=    33554432 cpu:         0.0
 (Enter /group/hpc-share/gaussian/2009D/g09/l202.exe)
                          Input orientation:                          
 ---------------------------------------------------------------------
 Center     Atomic      Atomic             Coordinates (Angstroms)
 Number     Number       Type             X           Y           Z
 ---------------------------------------------------------------------
      1          8           0        0.280235    0.000000   -0.548742
      2          7           0       -0.121633    0.000000    0.641207
      3         16           0        1.070318    0.000000    1.875015
      4          6           0        0.612657    0.000000    3.676824
      5          1           0        1.516668    0.000000    4.310054
      6          1           0        0.035307    0.891024    3.929739
      7          1           0        0.035307   -0.891024    3.929739
 ---------------------------------------------------------------------
                    Distance matrix (angstroms):
                    1          2          3          4          5
     1  O    0.000000
     2  N    1.255977   0.000000
     3  S    2.549280   1.715525   0.000000
     4  C    4.238621   3.123163   1.859024   0.000000
     5  H    5.013648   4.018017   2.475610   1.103728   0.000000
     6  H    4.572823   3.410718   2.467198   1.091432   1.770026
     7  H    4.572823   3.410718   2.467198   1.091432   1.770026
                    6          7
     6  H    0.000000
     7  H    1.782048   0.000000
 Stoichiometry    CH3NOS
 Framework group  CS[SG(CHNOS),X(H2)]
 Deg. of freedom    10
 Full point group                 CS      NOp   2
 RotChk:  IX=0 Diff= 3.62D-01
 Largest Abelian subgroup         CS      NOp   2
 Largest concise Abelian subgroup CS      NOp   2
                         Standard orientation:                         
 ---------------------------------------------------------------------
 Center     Atomic      Atomic             Coordinates (Angstroms)
 Number     Number       Type             X           Y           Z
 ---------------------------------------------------------------------
      1          8           0       -1.727780   -1.328928    0.000000
      2          7           0       -0.493302   -1.097538    0.000000
      3         16           0        0.000000    0.545533    0.000000
      4          6           0        1.795466    1.027477    0.000000
      5          1           0        1.905718    2.125685    0.000000
      6          1           0        2.298420    0.647560    0.891024
      7          1           0        2.298420    0.647560   -0.891024
 ---------------------------------------------------------------------
 Rotational constants (GHZ):     34.1293458      3.0712808      2.8689103
 Leave Link  202 at Mon Sep 21 22:15:00 2015, MaxMem=    33554432 cpu:         0.0
 (Enter /group/hpc-share/gaussian/2009D/g09/l301.exe)
 Standard basis: Aug-CC-pVDZ (5D, 7F)
 Ernie: Thresh=  0.10000D-02 Tol=  0.10000D-05 Strict=F.
 Ernie:  16 primitive shells out of 149 were deleted.
 There are    91 symmetry adapted cartesian basis functions of A'  symmetry.
 There are    40 symmetry adapted cartesian basis functions of A"  symmetry.
 There are    83 symmetry adapted basis functions of A'  symmetry.
 There are    40 symmetry adapted basis functions of A"  symmetry.
   123 basis functions,   243 primitive gaussians,   131 cartesian basis functions
    20 alpha electrons       20 beta electrons
       nuclear repulsion energy       150.8113555324 Hartrees.
 IExCor=  402 DFT=T Ex+Corr=B3LYP ExCW=0 ScaHFX=  0.200000
 ScaDFX=  0.800000  0.720000  1.000000  0.810000 ScalE2=  1.000000  1.000000
 IRadAn=      0 IRanWt=     -1 IRanGd=            0 ICorTp=0 IEmpDi=  4
 NAtoms=    7 NActive=    7 NUniq=    6 SFac= 1.36D+00 NAtFMM=   60 NAOKFM=F Big=F
 Integral buffers will be    131072 words long.
 Raffenetti 2 integral format.
 Two-electron integral symmetry is turned on.
 Leave Link  301 at Mon Sep 21 22:15:00 2015, MaxMem=    33554432 cpu:         0.4
 (Enter /group/hpc-share/gaussian/2009D/g09/l302.exe)
 NPDir=0 NMtPBC=     1 NCelOv=     1 NCel=       1 NClECP=     1 NCelD=      1
         NCelK=      1 NCelE2=     1 NClLst=     1 CellRange=     0.0.
 One-electron integrals computed using PRISM.
 One-electron integral symmetry used in STVInt
 NBasis=   123 RedAO= T EigKep=  5.19D-04  NBF=    83    40
 NBsUse=   123 1.00D-06 EigRej= -1.00D+00 NBFU=    83    40
 Precomputing XC quadrature grid using
 IXCGrd= 4 IRadAn=           0 IRanWt=          -1 IRanGd=           0 AccXCQ= 0.00D+00.
 Generated NRdTot=       0 NPtTot=           0 NUsed=           0 NTot=          32
 NSgBfM=   131   131   131   131   131 MxSgAt=     7 MxSgA2=     7.
 Leave Link  302 at Mon Sep 21 22:15:00 2015, MaxMem=    33554432 cpu:         1.5
 (Enter /group/hpc-share/gaussian/2009D/g09/l303.exe)
 DipDrv:  MaxL=1.
 Leave Link  303 at Mon Sep 21 22:15:01 2015, MaxMem=    33554432 cpu:         0.2
 (Enter /group/hpc-share/gaussian/2009D/g09/l401.exe)
 Initial guess from the checkpoint file:  "trans-mesno.chk"
 B after Tr=     0.000000    0.000000    0.000000
         Rot=    0.995823    0.000000    0.000000   -0.091305 Ang= -10.48 deg.
 Guess basis will be translated and rotated to current coordinates.
 JPrj=2 DoOrth=T DoCkMO=T.
 Initial guess orbital symmetries:
       Occupied  (A') (A') (A') (A') (A') (A') (A') (A") (A') (A')
                 (A') (A') (A') (A") (A') (A') (A") (A') (A") (A')
       Virtual   (A') (A') (A') (A') (A') (A') (A') (A') (A') (A')
                 (A') (A') (A') (A') (A') (A') (A') (A') (A') (A')
                 (A') (A') (A') (A') (A') (A') (A') (A') (A') (A')
                 (A') (A') (A') (A') (A') (A') (A') (A') (A') (A')
                 (A') (A') (A') (A') (A') (A') (A') (A') (A') (A')
                 (A') (A') (A') (A') (A') (A') (A') (A') (A') (A')
                 (A') (A') (A') (A') (A') (A') (A') (A") (A") (A")
                 (A") (A") (A") (A") (A") (A") (A") (A") (A") (A")
                 (A") (A") (A") (A") (A") (A") (A") (A") (A") (A")
                 (A") (A") (A") (A") (A") (A") (A") (A") (A") (A")
                 (A") (A") (A")
 The electronic state of the initial guess is 1-A'.
 Generating alternative initial guess.
 ExpMin= 2.97D-02 ExpMax= 1.11D+05 ExpMxC= 1.07D+03 IAcc=3 IRadAn=         5 AccDes= 0.00D+00
 Harris functional with IExCor=  402 and IRadAn=       5 diagonalized for initial guess.
 HarFok:  IExCor=  402 AccDes= 0.00D+00 IRadAn=         5 IDoV= 1 UseB2=F ITyADJ=14
 ICtDFT=  3500011 ScaDFX=  1.000000  1.000000  1.000000  1.000000
 FoFCou: FMM=F IPFlag=           0 FMFlag=      100000 FMFlg1=           0
         NFxFlg=           0 DoJE=T BraDBF=F KetDBF=T FulRan=T
         wScrn=  0.000000 ICntrl=     500 IOpCl=  0 I1Cent=   200000004 NGrid=           0
         NMat0=    1 NMatS0=      1 NMatT0=    0 NMatD0=    1 NMtDS0=    0 NMtDT0=    0
 Petite list used in FoFCou.
 Harris En= -567.988533413000    
 Leave Link  401 at Mon Sep 21 22:15:01 2015, MaxMem=    33554432 cpu:         3.0
 (Enter /group/hpc-share/gaussian/2009D/g09/l502.exe)
 Closed shell SCF:
 Using DIIS extrapolation, IDIIS=  1040.
 Integral symmetry usage will be decided dynamically.
 IVT=       72237 IEndB=       72237 NGot=    33554432 MDV=    33516128
 LenX=    33516128 LenY=    33498526
 Requested convergence on RMS density matrix=1.00D-08 within 128 cycles.
 Requested convergence on MAX density matrix=1.00D-06.
 Requested convergence on             energy=1.00D-06.
 No special actions if energy rises.
 Fock matrices will be formed incrementally for  20 cycles.

 Cycle   1  Pass 1  IDiag  1:
 FoFJK:  IHMeth= 1 ICntrl=       0 DoSepK=F KAlg= 0 I1Cent=   0 FoldK=F
 IRaf= 990000000 NMat=   1 IRICut=       1 DoRegI=T DoRafI=F ISym2E= 1.
 FoFCou: FMM=F IPFlag=           0 FMFlag=      100000 FMFlg1=           0
         NFxFlg=           0 DoJE=F BraDBF=F KetDBF=F FulRan=T
         wScrn=  0.000000 ICntrl=       0 IOpCl=  0 I1Cent=           0 NGrid=           0
         NMat0=    1 NMatS0=      1 NMatT0=    0 NMatD0=    1 NMtDS0=    0 NMtDT0=    0
 Petite list used in FoFCou.
 E= -567.930053804341    
 DIIS: error= 2.56D-02 at cycle   1 NSaved=   1.
 NSaved= 1 IEnMin= 1 EnMin= -567.930053804341     IErMin= 1 ErrMin= 2.56D-02
 ErrMax= 2.56D-02  0.00D+00 EMaxC= 1.00D-01 BMatC= 1.01D-01 BMatP= 1.01D-01
 IDIUse=3 WtCom= 7.44D-01 WtEn= 2.56D-01
 Coeff-Com:  0.100D+01
 Coeff-En:   0.100D+01
 Coeff:      0.100D+01
 Recover alternate guess density for next cycle.
 RMSDP=5.52D-03 MaxDP=9.20D-02              OVMax= 0.00D+00

 Cycle   2  Pass 1  IDiag  1:
 RMSU=  5.52D-03    CP:  9.95D-01
 E= -567.881162114424     Delta-E=        0.048891689917 Rises=F Damp=F
 Switch densities from cycles 1 and 2 for lowest energy.
 DIIS: error= 2.40D-02 at cycle   2 NSaved=   2.
 NSaved= 2 IEnMin= 1 EnMin= -567.930053804341     IErMin= 2 ErrMin= 2.40D-02
 ErrMax= 2.40D-02  0.00D+00 EMaxC= 1.00D+00 BMatC= 1.42D-01 BMatP= 1.01D-01
 IDIUse=1 WtCom= 1.00D+00 WtEn= 0.00D+00
 Coeff-Com:  0.578D+00 0.422D+00
 Coeff:      0.578D+00 0.422D+00
 Gap=     0.361 Goal=   None    Shift=    0.000
 RMSDP=5.10D-03 MaxDP=7.77D-02 DE= 4.89D-02 OVMax= 1.66D-01

 Cycle   3  Pass 1  IDiag  1:
 RMSU=  4.59D-03    CP:  9.88D-01  3.97D-01
 E= -567.879587157772     Delta-E=        0.001574956652 Rises=F Damp=F
 DIIS: error= 2.84D-02 at cycle   3 NSaved=   3.
 NSaved= 3 IEnMin= 1 EnMin= -567.930053804341     IErMin= 2 ErrMin= 2.40D-02
 ErrMax= 2.84D-02  0.00D+00 EMaxC= 1.00D+00 BMatC= 1.54D-01 BMatP= 1.01D-01
 IDIUse=1 WtCom= 1.00D+00 WtEn= 0.00D+00
 Coeff-Com:  0.969D-01 0.465D+00 0.438D+00
 Coeff:      0.969D-01 0.465D+00 0.438D+00
 Gap=     0.138 Goal=   None    Shift=    0.000
 RMSDP=3.34D-03 MaxDP=1.15D-01 DE= 1.57D-03 OVMax= 1.82D-01

 Cycle   4  Pass 1  IDiag  1:
 RMSU=  1.93D-03    CP:  9.83D-01  5.59D-01  4.40D-01
 E= -567.996300107922     Delta-E=       -0.116712950150 Rises=F Damp=F
 DIIS: error= 9.57D-03 at cycle   4 NSaved=   4.
 NSaved= 4 IEnMin= 4 EnMin= -567.996300107922     IErMin= 4 ErrMin= 9.57D-03
[...]
 -------------------------------------------------------------------
      1        8          -0.000084542    0.000000000   -0.000031322
      2        7           0.000173902    0.000000000    0.000081409
      3       16          -0.000151846    0.000000000    0.000207791
      4        6           0.000033029    0.000000000   -0.000323493
      5        1           0.000034306    0.000000000    0.000001417
      6        1          -0.000002425    0.000001851    0.000032098
      7        1          -0.000002425   -0.000001851    0.000032098
 -------------------------------------------------------------------
 Cartesian Forces:  Max     0.000323493 RMS     0.000102406
 Leave Link  716 at Mon Sep 21 22:16:04 2015, MaxMem=    33554432 cpu:         0.2
 (Enter /group/hpc-share/gaussian/2009D/g09/l103.exe)

 GradGradGradGradGradGradGradGradGradGradGradGradGradGradGradGradGradGrad
 Berny optimization.
 Using GEDIIS/GDIIS optimizer.
 FormGI is forming the generalized inverse of G from B-inverse, IUseBI=4.
 Internal  Forces:  Max     0.000252943 RMS     0.000087991
 Search for a local minimum.
 Step number  11 out of a maximum of   28
 All quantities printed in internal units (Hartrees-Bohrs-Radians)
 RMS Force = .87991D-04 SwitMx=.10000D-02 MixMth= 2
 Mixed Optimization -- En-DIIS/RFO-DIIS
 Swapping is turned off.
 Update second derivatives using D2CorX and points    3    2    4    5    6
                                                      7    8    9   10   11
 DE= -2.77D-06 DEPred=-2.28D-06 R= 1.21D+00
 TightC=F SS=  1.41D+00  RLast= 4.81D-03 DXNew= 1.2990D+00 1.4425D-02
 Trust test= 1.21D+00 RLast= 4.81D-03 DXMaxT set to 7.72D-01
 The second derivative matrix:
                          R1        R2        R3        R4        R5
           R1           0.75992
           R2           0.11993   0.10108
           R3           0.02056  -0.00212   0.20360
           R4          -0.00001   0.00056   0.00688   0.34995
           R5          -0.00012  -0.00193   0.00943  -0.00159   0.35108
           R6          -0.00012  -0.00193   0.00943  -0.00159   0.00179
           A1           0.08378   0.03230  -0.00650   0.00886  -0.00022
           A2           0.00091   0.02517   0.02021  -0.00117  -0.00336
           A3          -0.00997  -0.00947   0.01030   0.00237  -0.00227
           A4           0.00178  -0.00154   0.02747  -0.00270  -0.00065
           A5           0.00178  -0.00154   0.02747  -0.00270  -0.00065
           A6          -0.00126   0.00311  -0.02386   0.00049   0.00238
           A7          -0.00126   0.00311  -0.02386   0.00049   0.00238
           A8           0.00800   0.00574  -0.01743   0.00191  -0.00111
           D1           0.00000   0.00000   0.00000   0.00000   0.00000
           D2           0.00000   0.00000   0.00000   0.00000   0.00000
           D3           0.00610   0.00276   0.00193   0.00108  -0.00269
           D4          -0.00610  -0.00276  -0.00193  -0.00108   0.00269
                          R6        A1        A2        A3        A4
           R6           0.35108
           A1          -0.00022   0.43498
           A2          -0.00336   0.07119   0.21788
           A3          -0.00227   0.00990   0.02464   0.16525
           A4          -0.00065   0.00154  -0.01460  -0.00104   0.15387
           A5          -0.00065   0.00154  -0.01460  -0.00104  -0.00613
           A6           0.00238  -0.00896  -0.00049  -0.00361   0.00583
           A7           0.00238  -0.00896  -0.00049  -0.00361   0.00583
           A8          -0.00111   0.00265   0.00541   0.00385   0.00177
           D1           0.00000   0.00000   0.00000   0.00000   0.00000
           D2           0.00000   0.00000   0.00000   0.00000   0.00000
           D3          -0.00269   0.00278   0.00376   0.00516  -0.00246
           D4           0.00269  -0.00278  -0.00376  -0.00516   0.00246
                          A5        A6        A7        A8        D1
           A5           0.15387
           A6           0.00583   0.15740
           A7           0.00583  -0.00260   0.15740
           A8           0.00177  -0.00288  -0.00288   0.15839
           D1           0.00000   0.00000   0.00000   0.00000   0.02288
           D2           0.00000   0.00000   0.00000   0.00000   0.00000
           D3          -0.00246  -0.00040  -0.00040   0.00064   0.00000
           D4           0.00246   0.00040   0.00040  -0.00064   0.00000
                          D2        D3        D4
           D2           0.01561
           D3           0.00000   0.01640
           D4           0.00000  -0.00079   0.01640
 ITU=  1  1  1  1  1  1  1  0  0  1  0
     Eigenvalues ---    0.01561   0.02288   0.07336   0.09242   0.10720
     Eigenvalues ---    0.11323   0.16000   0.16014   0.20927   0.23981
     Eigenvalues ---    0.34926   0.34928   0.35460   0.43930   0.80369
 En-DIIS/RFO-DIIS IScMMF=        0 using points:    11   10    9
 RFO step:  Lambda=-3.16205698D-07.
 NNeg= 0 NP= 3 Switch=  2.50D-03 Rises=F DC=  1.09D-05 SmlDif=  1.00D-05
 RMS Error=  0.2064786400D-03 NUsed= 3 EDIIS=F
 DidBck=F Rises=F RFO-DIIS coefs:    1.22085   -0.22011   -0.00074
 Iteration  1 RMS(Cart)=  0.00069151 RMS(Int)=  0.00000026
 Iteration  2 RMS(Cart)=  0.00000013 RMS(Int)=  0.00000022
 ITry= 1 IFail=0 DXMaxC= 1.56D-03 DCOld= 1.00D+10 DXMaxT= 7.72D-01 DXLimC= 3.00D+00 Rises=F
 ClnCor:  largest displacement from symmetrization is 1.07D-12 for atom     7.
 Variable       Old X    -DE/DX   Delta X   Delta X   Delta X     New X
                                 (Linear)    (Quad)   (Total)
    R1        2.23731   0.00002  -0.00024   0.00047   0.00023   2.23754
    R2        3.50606  -0.00011  -0.00001  -0.00139  -0.00140   3.50466
    R3        3.45333  -0.00025  -0.00076  -0.00069  -0.00145   3.45188
    R4        2.07214   0.00002   0.00005   0.00005   0.00010   2.07224
    R5        2.06995   0.00001   0.00005   0.00000   0.00005   2.07000
    R6        2.06995   0.00001   0.00005   0.00000   0.00005   2.07000
    A1        2.01788   0.00019  -0.00012   0.00064   0.00052   2.01840
    A2        1.66322  -0.00014   0.00027  -0.00067  -0.00040   1.66282
    A3        1.86186  -0.00005  -0.00010  -0.00017  -0.00027   1.86159
    A4        1.92589   0.00005   0.00035   0.00020   0.00055   1.92644
    A5        1.92589   0.00005   0.00035   0.00020   0.00055   1.92644
    A6        1.90799  -0.00001  -0.00021  -0.00011  -0.00032   1.90767
    A7        1.90799  -0.00001  -0.00021  -0.00011  -0.00032   1.90767
    A8        1.93274  -0.00002  -0.00019  -0.00001  -0.00019   1.93254
    D1        3.14159   0.00000   0.00000   0.00000   0.00000   3.14159
    D2        3.14159   0.00000   0.00000   0.00000   0.00000   3.14159
    D3       -1.07078  -0.00002  -0.00012  -0.00013  -0.00025  -1.07103
    D4        1.07078   0.00002   0.00012   0.00013   0.00025   1.07103
         Item               Value     Threshold  Converged?
 Maximum Force            0.000253     0.000450     YES
 RMS     Force            0.000088     0.000300     YES
 Maximum Displacement     0.001558     0.001800     YES
 RMS     Displacement     0.000692     0.001200     YES
 Predicted change in Energy=-3.837055D-07
 Optimization completed.
    -- Stationary point found.
                           ----------------------------
                           !   Optimized Parameters   !
                           ! (Angstroms and Degrees)  !
 --------------------------                            --------------------------
 ! Name  Definition              Value          Derivative Info.                !
 --------------------------------------------------------------------------------
 ! R1    R(1,2)                  1.1839         -DE/DX =    0.0                 !
 ! R2    R(2,3)                  1.8553         -DE/DX =   -0.0001              !
 ! R3    R(3,4)                  1.8274         -DE/DX =   -0.0003              !
 ! R4    R(4,5)                  1.0965         -DE/DX =    0.0                 !
 ! R5    R(4,6)                  1.0954         -DE/DX =    0.0                 !
 ! R6    R(4,7)                  1.0954         -DE/DX =    0.0                 !
 ! A1    A(1,2,3)              115.616          -DE/DX =    0.0002              !
 ! A2    A(2,3,4)               95.2956         -DE/DX =   -0.0001              !
 ! A3    A(3,4,5)              106.6769         -DE/DX =   -0.0001              !
 ! A4    A(3,4,6)              110.3454         -DE/DX =    0.0                 !
 ! A5    A(3,4,7)              110.3454         -DE/DX =    0.0                 !
 ! A6    A(5,4,6)              109.32           -DE/DX =    0.0                 !
 ! A7    A(5,4,7)              109.32           -DE/DX =    0.0                 !
 ! A8    A(6,4,7)              110.7377         -DE/DX =    0.0                 !
 ! D1    D(1,2,3,4)            180.0            -DE/DX =    0.0                 !
 ! D2    D(2,3,4,5)            180.0            -DE/DX =    0.0                 !
 ! D3    D(2,3,4,6)            -61.3513         -DE/DX =    0.0                 !
 ! D4    D(2,3,4,7)             61.3513         -DE/DX =    0.0                 !
 --------------------------------------------------------------------------------
 Lowest energy point so far.  Saving SCF results.
 GradGradGradGradGradGradGradGradGradGradGradGradGradGradGradGradGradGrad

 Largest change from initial coordinates is atom    6       0.496 Angstoms.
 Leave Link  103 at Mon Sep 21 22:16:04 2015, MaxMem=    33554432 cpu:         0.1
 (Enter /group/hpc-share/gaussian/2009D/g09/l202.exe)
                          Input orientation:                          
 ---------------------------------------------------------------------
 Center     Atomic      Atomic             Coordinates (Angstroms)
 Number     Number       Type             X           Y           Z
 ---------------------------------------------------------------------
      1          8           0        0.056138    0.000000   -0.248137
      2          7           0       -0.095451    0.000000    0.926050
      3         16           0        1.461047    0.000000    1.935782
      4          6           0        0.612241    0.000000    3.554117
      5          1           0        1.396303    0.000000    4.320686
      6          1           0       -0.000709    0.901299    3.662669
      7          1           0       -0.000709   -0.901299    3.662669
 ---------------------------------------------------------------------
                    Distance matrix (angstroms):
                    1          2          3          4          5
     1  O    0.000000
     2  N    1.183931   0.000000
     3  S    2.596781   1.855329   0.000000
     4  C    3.842706   2.721685   1.827424   0.000000
     5  H    4.761322   3.707949   2.385783   1.096532   0.000000
     6  H    4.013723   2.882776   2.435407   1.095369   1.788008
     7  H    4.013723   2.882776   2.435407   1.095369   1.788008
                    6          7
     6  H    0.000000
     7  H    1.802598   0.000000
 Stoichiometry    CH3NOS
 Framework group  CS[SG(CHNOS),X(H2)]
 Deg. of freedom    10
 Full point group                 CS      NOp   2
 RotChk:  IX=0 Diff= 3.57D-15
 Largest Abelian subgroup         CS      NOp   2
 Largest concise Abelian subgroup CS      NOp   2
                         Standard orientation:                         
 ---------------------------------------------------------------------
 Center     Atomic      Atomic             Coordinates (Angstroms)
 Number     Number       Type             X           Y           Z
 ---------------------------------------------------------------------
      1          8           0       -1.692547   -1.181277    0.000000
      2          7           0       -0.523893   -0.991699    0.000000
      3         16           0        0.000000    0.788128    0.000000
      4          6           0        1.793200    0.436114    0.000000
      5          1           0        2.304322    1.406235    0.000000
      6          1           0        2.072053   -0.120423    0.901299
      7          1           0        2.072053   -0.120423   -0.901299
 ---------------------------------------------------------------------
 Rotational constants (GHZ):     18.5262884      3.6632612      3.1203361
 Leave Link  202 at Mon Sep 21 22:16:05 2015, MaxMem=    33554432 cpu:         0.0
 (Enter /group/hpc-share/gaussian/2009D/g09/l601.exe)
 Copying SCF densities to generalized density rwf, IOpCl= 0 IROHF=0.

 **********************************************************************

            Population analysis using the SCF density.

 **********************************************************************

 Orbital symmetries:
       Occupied  (A') (A') (A') (A') (A') (A') (A') (A") (A') (A')
                 (A') (A') (A') (A") (A') (A") (A') (A') (A") (A')
       Virtual   (A") (A') (A') (A') (A") (A') (A') (A') (A') (A")
                 (A") (A') (A') (A') (A') (A") (A') (A") (A') (A")
                 (A') (A') (A') (A") (A') (A') (A") (A') (A') (A")
                 (A') (A') (A") (A') (A") (A') (A') (A") (A') (A')
                 (A') (A") (A') (A') (A") (A") (A') (A') (A") (A')
                 (A") (A') (A") (A') (A') (A") (A') (A') (A") (A')
                 (A") (A') (A') (A") (A') (A") (A') (A') (A') (A")
                 (A') (A') (A') (A") (A') (A") (A") (A') (A') (A")
                 (A') (A') (A') (A") (A') (A') (A") (A') (A") (A')
                 (A') (A") (A') (A') (A") (A') (A') (A') (A") (A')
                 (A") (A') (A')
 The electronic state is 1-A'.
 Alpha  occ. eigenvalues --  -88.91538 -19.23976 -14.49436 -10.23231  -7.97562
 Alpha  occ. eigenvalues --   -5.93894  -5.93598  -5.93083  -1.20826  -0.82024
 Alpha  occ. eigenvalues --   -0.71257  -0.62138  -0.51015  -0.49051  -0.48472
 Alpha  occ. eigenvalues --   -0.44645  -0.43109  -0.37244  -0.27083  -0.25018
 Alpha virt. eigenvalues --   -0.10636  -0.03443  -0.01140   0.01134   0.02072
 Alpha virt. eigenvalues --    0.02195   0.06068   0.06558   0.07612   0.08123
 Alpha virt. eigenvalues --    0.08641   0.08814   0.10849   0.11961   0.12773
 Alpha virt. eigenvalues --    0.13162   0.15147   0.15194   0.16983   0.18077
 Alpha virt. eigenvalues --    0.19925   0.21301   0.24717   0.25478   0.26830
 Alpha virt. eigenvalues --    0.28115   0.29595   0.30661   0.33329   0.33581
 Alpha virt. eigenvalues --    0.35940   0.38622   0.39368   0.41238   0.41690
 Alpha virt. eigenvalues --    0.44542   0.44969   0.46492   0.47854   0.48945
 Alpha virt. eigenvalues --    0.52639   0.53127   0.56416   0.60345   0.61592
 Alpha virt. eigenvalues --    0.62618   0.63026   0.71109   0.71710   0.72929
 Alpha virt. eigenvalues --    0.75994   0.78816   0.83596   0.85420   0.85981
 Alpha virt. eigenvalues --    0.86057   0.88939   0.90386   0.91359   0.97371
 Alpha virt. eigenvalues --    0.97772   0.97835   1.00596   1.01545   1.03340
 Alpha virt. eigenvalues --    1.07738   1.07749   1.12326   1.18491   1.19441
 Alpha virt. eigenvalues --    1.25077   1.31127   1.37509   1.47136   1.54147
 Alpha virt. eigenvalues --    1.59571   1.62348   1.63951   1.74379   1.77105
 Alpha virt. eigenvalues --    1.82129   1.87802   1.89322   1.91075   1.94815
 Alpha virt. eigenvalues --    2.03105   2.16413   2.19457   2.20466   2.21259
 Alpha virt. eigenvalues --    2.25034   2.25885   2.27996   2.47686   2.55782
 Alpha virt. eigenvalues --    2.60449   2.63544   3.16260   3.20391   3.25056
 Alpha virt. eigenvalues --    3.46507   3.48434   3.66243
          Condensed to atoms (all electrons):
               1          2          3          4          5          6
     1  O    8.617650  -0.157534  -0.087668   0.011351  -0.001680   0.002136
     2  N   -0.157534   7.286463  -0.064036  -0.061070   0.034413  -0.036401
     3  S   -0.087668  -0.064036  15.884921   0.168089  -0.195723  -0.043947
     4  C    0.011351  -0.061070   0.168089   4.289918   0.347647   0.312463
     5  H   -0.001680   0.034413  -0.195723   0.347647   1.442987  -0.196619
     6  H    0.002136  -0.036401  -0.043947   0.312463  -0.196619   1.415117
     7  H    0.002136  -0.036401  -0.043947   0.312463  -0.196619  -0.245140
               7
     1  O    0.002136
     2  N   -0.036401
     3  S   -0.043947
     4  C    0.312463
     5  H   -0.196619
     6  H   -0.245140
     7  H    1.415117
 Mulliken charges:
               1
     1  O   -0.386390
     2  N    0.034566
     3  S    0.382310
     4  C    0.619140
     5  H   -0.234407
     6  H   -0.207609
     7  H   -0.207609
 Sum of Mulliken charges =   0.00000
 Mulliken charges with hydrogens summed into heavy atoms:
               1
     1  O   -0.386390
     2  N    0.034566
     3  S    0.382310
     4  C   -0.030485
 Electronic spatial extent (au):  <R**2>=            393.3777
 Charge=              0.0000 electrons
 Dipole moment (field-independent basis, Debye):
    X=              2.3014    Y=              0.6998    Z=              0.0000  Tot=              2.4054
 Quadrupole moment (field-independent basis, Debye-Ang):
   XX=            -29.5492   YY=            -32.6383   ZZ=            -30.8488
   XY=              0.2299   XZ=              0.0000   YZ=              0.0000
 Traceless Quadrupole moment (field-independent basis, Debye-Ang):
   XX=              1.4629   YY=             -1.6262   ZZ=              0.1633
   XY=              0.2299   XZ=              0.0000   YZ=              0.0000
 Octapole moment (field-independent basis, Debye-Ang**2):
  XXX=              2.4401  YYY=             -1.3444  ZZZ=              0.0000  XYY=              1.5891
  XXY=              3.2602  XXZ=              0.0000  XZZ=             -1.5681  YZZ=             -3.9186
  YYZ=              0.0000  XYZ=              0.0000
 Hexadecapole moment (field-independent basis, Debye-Ang**3):
 XXXX=           -296.4131 YYYY=           -179.8378 ZZZZ=            -42.6010 XXXY=            -58.3979
 XXXZ=              0.0000 YYYX=            -55.5675 YYYZ=              0.0000 ZZZX=              0.0000
 ZZZY=              0.0000 XXYY=            -77.7588 XXZZ=            -53.1431 YYZZ=            -37.1818
 XXYZ=              0.0000 YYXZ=              0.0000 ZZXY=            -19.4589
 N-N= 1.522819928789D+02 E-N=-1.648640920108D+03  KE= 5.659955820225D+02
 Symmetry A'   KE= 5.212631637562D+02
 Symmetry A"   KE= 4.473241826632D+01
 No NMR shielding tensors so no spin-rotation constants.
 Leave Link  601 at Mon Sep 21 22:16:05 2015, MaxMem=    33554432 cpu:         1.7
 (Enter /group/hpc-share/gaussian/2009D/g09/l9999.exe)
 B after Tr=    -0.094414    0.000000    0.249617
         Rot=    0.999707    0.000000   -0.024209    0.000000 Ang=  -2.77 deg.
 Final structure in terms of initial Z-matrix:
 O
 N,1,no2
 S,2,sn3,1,sno3
 C,3,cs4,1,cso4,2,dih4,0
 H,4,hc5,3,hcs5,1,dih5,0
 H,4,hc6,3,hcs6,5,dih6,0
 H,4,hc7,3,hcs7,5,dih7,0
      Variables:
 no2=1.18393115
 sn3=1.85532944
 sno3=115.61602008
 cs4=1.82742434
 cso4=119.5702245
 dih4=0.
 hc5=1.09653151
 hcs5=106.67693944
 dih5=180.
 hc6=1.09536851
 hcs6=110.34537461
 dih6=118.64868462
 hc7=1.09536851
 hcs7=110.34537461
 dih7=-118.64868462
 1\1\GINC-HPC-CN21\FOpt\RB3LYP\Aug-CC-pVDZ\C1H3N1O1S1\6498IVANOVM\21-Se
 p-2015\0\\#P b3lyp/aug-cc-pvdz opt\\trans-mesno\\0,1\O,0.1381319376,0.
 ,-0.2842992076\N,-0.0134574721,0.,0.8898871562\S,1.5430408749,0.,1.899
 6199026\C,0.6942348448,0.,3.517954866\H,1.4782969797,0.,4.2845237915\H
 ,0.0812841443,0.9012991856,3.6265062236\H,0.0812841443,-0.9012991856,3
 .6265062236\\Version=EM64L-G09RevD.01\State=1-A'\HF=-568.0456949\RMSD=
 3.412e-09\RMSF=1.024e-04\Dipole=0.0056608,0.,0.9463509\Quadrupole=-1.1
 156992,0.1214324,0.9942668,0.,-0.4846929,0.\PG=CS [SG(C1H1N1O1S1),X(H2
 )]\\@


 THOSE WITH THE GOLD MAKE THE RULES.

             -- PETER'S GOLDEN RULE
 Job cpu time:       0 days  0 hours  9 minutes 36.8 seconds.
 File lengths (MBytes):  RWF=     11 Int=      0 D2E=      0 Chk=      2 Scr=      1
 Normal termination of Gaussian 09 at Mon Sep 21 22:16:05 2015.
