 Entering Gaussian System, Link 0=g09
 Input=uracil.com
 Output=uracil.log
 AtFile(1): uracil.zmat
             n
             c   1 cn2
             c    2 cc3         1 ccn3
             c    3 cc4         2 ccc4          1 dih4
             n    4 nc5         3 ncc5          2 dih5
             c    5 cn6         4 cnc6          3 dih6
             h    2 hc7         1 hcn7          3 dih7
             h    3 hc8         2 hcc8          4 dih8
             o    4 oc9         3 occ9          5 dih9
             h    5 hn10        4 hnc10         3 dih10
             o    6 oc11        5 ocn11         4 dih11
             h    1 hn12        2 hnc12         3 dih12
            
            cn2         1.400000
            cc3         1.400000
            ccn3        120.000
            cc4         1.400000
            ccc4        120.000
            dih4          0.000
            nc5         1.400000
            ncc5        120.000
            dih5          0.000
            cn6         1.400000
            cnc6        120.000
            dih6          0.000
            hc7         1.089000
            hcn7        120.000
            dih7        180.000
            hc8         1.089000
            hcc8        120.000
            dih8        180.000
            oc9         1.089000
            occ9        120.000
            dih9        180.000
            hn10        1.089000
            hnc10       120.000
            dih10       180.000
            oc11        1.089000
            ocn11       120.000
            dih11       180.000
            hn12        1.089000
            hnc12       109.471
            dih12       180.000
            
            
 Initial command:
 /group/hpc-share/gaussian/2009D/g09/l1.exe "/scratch/gaussian/g_uracil.com-835888.hn1.marqnet.mu.edu/Gau-27715.inp" -scrdir="/scratch/gaussian/g_uracil.com-835888.hn1.marqnet.mu.edu/"
 Entering Link 1 = /group/hpc-share/gaussian/2009D/g09/l1.exe PID=     27716.
  
 Copyright (c) 1988,1990,1992,1993,1995,1998,2003,2009,2013,
            Gaussian, Inc.  All Rights Reserved.
  
 This is part of the Gaussian(R) 09 program.  It is based on
 the Gaussian(R) 03 system (copyright 2003, Gaussian, Inc.),
 the Gaussian(R) 98 system (copyright 1998, Gaussian, Inc.),
 the Gaussian(R) 94 system (copyright 1995, Gaussian, Inc.),
 the Gaussian 92(TM) system (copyright 1992, Gaussian, Inc.),
 the Gaussian 90(TM) system (copyright 1990, Gaussian, Inc.),
 the Gaussian 88(TM) system (copyright 1988, Gaussian, Inc.),
 the Gaussian 86(TM) system (copyright 1986, Carnegie Mellon
 University), and the Gaussian 82(TM) system (copyright 1983,
 Carnegie Mellon University). Gaussian is a federally registered
 trademark of Gaussian, Inc.
  
 This software contains proprietary and confidential information,
 including trade secrets, belonging to Gaussian, Inc.
  
 This software is provided under written license and may be
 used, copied, transmitted, or stored only in accord with that
 written license.
  
 The following legend is applicable only to US Government
 contracts under FAR:
  
                    RESTRICTED RIGHTS LEGEND
  
 Use, reproduction and disclosure by the US Government is
 subject to restrictions as set forth in subparagraphs (a)
 and (c) of the Commercial Computer Software - Restricted
 Rights clause in FAR 52.227-19.
  
 Gaussian, Inc.
 340 Quinnipiac St., Bldg. 40, Wallingford CT 06492
  
  
 ---------------------------------------------------------------
 Warning -- This program may not be used in any manner that
 competes with the business of Gaussian, Inc. or will provide
 assistance to any competitor of Gaussian, Inc.  The licensee
 of this program is prohibited from giving any competitor of
 Gaussian, Inc. access to this program.  By using this program,
 the user acknowledges that Gaussian, Inc. is engaged in the
 business of creating and licensing software in the field of
 computational chemistry and represents and warrants to the
 licensee that it is not a competitor of Gaussian, Inc. and that
 it will not use this program in any manner prohibited above.
 ---------------------------------------------------------------
  

 Cite this work as:
 Gaussian 09, Revision D.01,
 M. J. Frisch, G. W. Trucks, H. B. Schlegel, G. E. Scuseria, 
 M. A. Robb, J. R. Cheeseman, G. Scalmani, V. Barone, B. Mennucci, 
 G. A. Petersson, H. Nakatsuji, M. Caricato, X. Li, H. P. Hratchian, 
 A. F. Izmaylov, J. Bloino, G. Zheng, J. L. Sonnenberg, M. Hada, 
 M. Ehara, K. Toyota, R. Fukuda, J. Hasegawa, M. Ishida, T. Nakajima, 
 Y. Honda, O. Kitao, H. Nakai, T. Vreven, J. A. Montgomery, Jr., 
 J. E. Peralta, F. Ogliaro, M. Bearpark, J. J. Heyd, E. Brothers, 
 K. N. Kudin, V. N. Staroverov, T. Keith, R. Kobayashi, J. Normand, 
 K. Raghavachari, A. Rendell, J. C. Burant, S. S. Iyengar, J. Tomasi, 
 M. Cossi, N. Rega, J. M. Millam, M. Klene, J. E. Knox, J. B. Cross, 
 V. Bakken, C. Adamo, J. Jaramillo, R. Gomperts, R. E. Stratmann, 
 O. Yazyev, A. J. Austin, R. Cammi, C. Pomelli, J. W. Ochterski, 
 R. L. Martin, K. Morokuma, V. G. Zakrzewski, G. A. Voth, 
 P. Salvador, J. J. Dannenberg, S. Dapprich, A. D. Daniels, 
 O. Farkas, J. B. Foresman, J. V. Ortiz, J. Cioslowski, 
 and D. J. Fox, Gaussian, Inc., Wallingford CT, 2013.
 
 ******************************************
 Gaussian 09:  EM64L-G09RevD.01 24-Apr-2013
                30-Oct-2015 
 ******************************************
 %nproc=8
 Will use up to    8 processors via shared memory.
 %chk=uracil.chk
 ----------------------
 #P mp2/aug-cc-pvtz opt
 ----------------------
 1/18=20,19=15,38=1/1,3;
 2/9=110,12=2,17=6,18=5,40=1/2;
 3/5=16,6=1,7=10,11=9,16=1,25=1,30=1,71=1/1,2,3;
 4//1;
 5/5=2,38=5/2;
 8/6=4,10=1/1;
 9/15=2,16=-3/6;
 10/5=1/2;
 6/7=2,8=2,9=2,10=2/1;
 7/12=2/1,2,3,16;
 1/18=20,19=15/3(2);
 2/9=110/2;
 99//99;
 2/9=110/2;
 3/5=16,6=1,7=10,11=9,16=1,25=1,30=1,71=1/1,2,3;
 4/5=5,16=3,69=1/1;
 5/5=2,38=5/2;
 8/6=4,10=1/1;
 9/15=2,16=-3/6;
 10/5=1/2;
 7/12=2/1,2,3,16;
 1/18=20,19=15/3(-8);
 2/9=110/2;
 6/7=2,8=2,9=2,10=2/1;
 99//99;
 Leave Link    1 at Fri Oct 30 23:43:46 2015, MaxMem=           0 cpu:         0.4
 (Enter /group/hpc-share/gaussian/2009D/g09/l101.exe)
 ------
 uracil
 ------
 Symbolic Z-matrix:
 Charge =  0 Multiplicity = 1
 n
 c                    1    cn2
 c                    2    cc3      1    ccn3
 c                    3    cc4      2    ccc4     1    dih4     0
 n                    4    nc5      3    ncc5     2    dih5     0
 c                    5    cn6      4    cnc6     3    dih6     0
 h                    2    hc7      1    hcn7     3    dih7     0
 h                    3    hc8      2    hcc8     4    dih8     0
 o                    4    oc9      3    occ9     5    dih9     0
 h                    5    hn10     4    hnc10    3    dih10    0
 o                    6    oc11     5    ocn11    4    dih11    0
 h                    1    hn12     2    hnc12    3    dih12    0
       Variables:
  cn2                   1.4                      
  cc3                   1.4                      
  ccn3                120.                       
  cc4                   1.4                      
  ccc4                120.                       
  dih4                  0.                       
  nc5                   1.4                      
  ncc5                120.                       
  dih5                  0.                       
  cn6                   1.4                      
  cnc6                120.                       
  dih6                  0.                       
  hc7                   1.089                    
  hcn7                120.                       
  dih7                180.                       
  hc8                   1.089                    
  hcc8                120.                       
  dih8                180.                       
  oc9                   1.089                    
  occ9                120.                       
  dih9                180.                       
  hn10                  1.089                    
  hnc10               120.                       
  dih10               180.                       
  oc11                  1.089                    
  ocn11               120.                       
  dih11               180.                       
  hn12                  1.089                    
  hnc12               109.471                    
  dih12               180.                       
 
     1 tetrahedral angles replaced.
 NAtoms=     12 NQM=       12 NQMF=       0 NMMI=      0 NMMIF=      0
                NMic=       0 NMicF=      0.
                    Isotopes and Nuclear Properties:
 (Nuclear quadrupole moments (NQMom) in fm**2, nuclear magnetic moments (NMagM)
  in nuclear magnetons)

  Atom         1           2           3           4           5           6           7           8           9          10
 IAtWgt=          14          12          12          12          14          12           1           1          16           1
 AtmWgt=  14.0030740  12.0000000  12.0000000  12.0000000  14.0030740  12.0000000   1.0078250   1.0078250  15.9949146   1.0078250
 NucSpn=           2           0           0           0           2           0           1           1           0           1
 AtZEff=   0.0000000   0.0000000   0.0000000   0.0000000   0.0000000   0.0000000   0.0000000   0.0000000   0.0000000   0.0000000
 NQMom=    2.0440000   0.0000000   0.0000000   0.0000000   2.0440000   0.0000000   0.0000000   0.0000000   0.0000000   0.0000000
 NMagM=    0.4037610   0.0000000   0.0000000   0.0000000   0.4037610   0.0000000   2.7928460   2.7928460   0.0000000   2.7928460
 AtZNuc=   7.0000000   6.0000000   6.0000000   6.0000000   7.0000000   6.0000000   1.0000000   1.0000000   8.0000000   1.0000000

  Atom        11          12
 IAtWgt=          16           1
 AtmWgt=  15.9949146   1.0078250
 NucSpn=           0           1
 AtZEff=   0.0000000   0.0000000
 NQMom=    0.0000000   0.0000000
 NMagM=    0.0000000   2.7928460
 AtZNuc=   8.0000000   1.0000000
 Leave Link  101 at Fri Oct 30 23:43:46 2015, MaxMem=    33554432 cpu:         1.2
 (Enter /group/hpc-share/gaussian/2009D/g09/l103.exe)

 GradGradGradGradGradGradGradGradGradGradGradGradGradGradGradGradGradGrad
 Berny optimization.
 Initialization pass.
                           ----------------------------
                           !    Initial Parameters    !
                           ! (Angstroms and Degrees)  !
 --------------------------                            --------------------------
 ! Name  Definition              Value          Derivative Info.                !
 --------------------------------------------------------------------------------
 ! R1    R(1,2)                  1.4            estimate D2E/DX2                !
 ! R2    R(1,6)                  1.4            estimate D2E/DX2                !
 ! R3    R(1,12)                 1.089          estimate D2E/DX2                !
 ! R4    R(2,3)                  1.4            estimate D2E/DX2                !
 ! R5    R(2,7)                  1.089          estimate D2E/DX2                !
 ! R6    R(3,4)                  1.4            estimate D2E/DX2                !
 ! R7    R(3,8)                  1.089          estimate D2E/DX2                !
 ! R8    R(4,5)                  1.4            estimate D2E/DX2                !
 ! R9    R(4,9)                  1.089          estimate D2E/DX2                !
 ! R10   R(5,6)                  1.4            estimate D2E/DX2                !
 ! R11   R(5,10)                 1.089          estimate D2E/DX2                !
 ! R12   R(6,11)                 1.089          estimate D2E/DX2                !
 ! A1    A(2,1,6)              120.0            estimate D2E/DX2                !
 ! A2    A(2,1,12)             109.4712         estimate D2E/DX2                !
 ! A3    A(6,1,12)             130.5288         estimate D2E/DX2                !
 ! A4    A(1,2,3)              120.0            estimate D2E/DX2                !
 ! A5    A(1,2,7)              120.0            estimate D2E/DX2                !
 ! A6    A(3,2,7)              120.0            estimate D2E/DX2                !
 ! A7    A(2,3,4)              120.0            estimate D2E/DX2                !
 ! A8    A(2,3,8)              120.0            estimate D2E/DX2                !
 ! A9    A(4,3,8)              120.0            estimate D2E/DX2                !
 ! A10   A(3,4,5)              120.0            estimate D2E/DX2                !
 ! A11   A(3,4,9)              120.0            estimate D2E/DX2                !
 ! A12   A(5,4,9)              120.0            estimate D2E/DX2                !
 ! A13   A(4,5,6)              120.0            estimate D2E/DX2                !
 ! A14   A(4,5,10)             120.0            estimate D2E/DX2                !
 ! A15   A(6,5,10)             120.0            estimate D2E/DX2                !
 ! A16   A(1,6,5)              120.0            estimate D2E/DX2                !
 ! A17   A(1,6,11)             120.0            estimate D2E/DX2                !
 ! A18   A(5,6,11)             120.0            estimate D2E/DX2                !
 ! D1    D(6,1,2,3)              0.0            estimate D2E/DX2                !
 ! D2    D(6,1,2,7)            180.0            estimate D2E/DX2                !
 ! D3    D(12,1,2,3)           180.0            estimate D2E/DX2                !
 ! D4    D(12,1,2,7)             0.0            estimate D2E/DX2                !
 ! D5    D(2,1,6,5)              0.0            estimate D2E/DX2                !
 ! D6    D(2,1,6,11)           180.0            estimate D2E/DX2                !
 ! D7    D(12,1,6,5)           180.0            estimate D2E/DX2                !
 ! D8    D(12,1,6,11)            0.0            estimate D2E/DX2                !
 ! D9    D(1,2,3,4)              0.0            estimate D2E/DX2                !
 ! D10   D(1,2,3,8)            180.0            estimate D2E/DX2                !
 ! D11   D(7,2,3,4)            180.0            estimate D2E/DX2                !
 ! D12   D(7,2,3,8)              0.0            estimate D2E/DX2                !
 ! D13   D(2,3,4,5)              0.0            estimate D2E/DX2                !
 ! D14   D(2,3,4,9)            180.0            estimate D2E/DX2                !
 ! D15   D(8,3,4,5)            180.0            estimate D2E/DX2                !
 ! D16   D(8,3,4,9)              0.0            estimate D2E/DX2                !
 ! D17   D(3,4,5,6)              0.0            estimate D2E/DX2                !
 ! D18   D(3,4,5,10)           180.0            estimate D2E/DX2                !
 ! D19   D(9,4,5,6)            180.0            estimate D2E/DX2                !
 ! D20   D(9,4,5,10)             0.0            estimate D2E/DX2                !
 ! D21   D(4,5,6,1)              0.0            estimate D2E/DX2                !
 ! D22   D(4,5,6,11)           180.0            estimate D2E/DX2                !
 ! D23   D(10,5,6,1)           180.0            estimate D2E/DX2                !
 ! D24   D(10,5,6,11)            0.0            estimate D2E/DX2                !
 --------------------------------------------------------------------------------
 Trust Radius=3.00D-01 FncErr=1.00D-07 GrdErr=1.00D-07
 Number of steps in this run=     64 maximum allowed number of steps=    100.
 GradGradGradGradGradGradGradGradGradGradGradGradGradGradGradGradGradGrad

 Leave Link  103 at Fri Oct 30 23:43:46 2015, MaxMem=    33554432 cpu:         0.1
 (Enter /group/hpc-share/gaussian/2009D/g09/l202.exe)
                          Input orientation:                          
 ---------------------------------------------------------------------
 Center     Atomic      Atomic             Coordinates (Angstroms)
 Number     Number       Type             X           Y           Z
 ---------------------------------------------------------------------
      1          7           0        0.000000    0.000000    0.000000
      2          6           0        0.000000    0.000000    1.400000
      3          6           0        1.212436    0.000000    2.100000
      4          6           0        2.424871    0.000000    1.400000
      5          7           0        2.424871    0.000000    0.000000
      6          6           0        1.212436    0.000000   -0.700000
      7          1           0       -0.943102    0.000000    1.944500
      8          1           0        1.212436    0.000000    3.189000
      9          8           0        3.367973    0.000000    1.944500
     10          1           0        3.367973    0.000000   -0.544500
     11          8           0        1.212436    0.000000   -1.789000
     12          1           0       -1.026719    0.000000   -0.363000
 ---------------------------------------------------------------------
                    Distance matrix (angstroms):
                    1          2          3          4          5
     1  N    0.000000
     2  C    1.400000   0.000000
     3  C    2.424871   1.400000   0.000000
     4  C    2.800000   2.424871   1.400000   0.000000
     5  N    2.424871   2.800000   2.424871   1.400000   0.000000
     6  C    1.400000   2.424871   2.800000   2.424871   1.400000
     7  H    2.161139   1.089000   2.161139   3.411704   3.889000
     8  H    3.411704   2.161139   1.089000   2.161139   3.411704
     9  O    3.889000   3.411704   2.161139   1.089000   2.161139
    10  H    3.411704   3.889000   3.411704   2.161139   1.089000
    11  O    2.161139   3.411704   3.889000   3.411704   2.161139
    12  H    1.089000   2.040177   3.328691   3.875777   3.470626
                    6          7          8          9         10
     6  C    0.000000
     7  H    3.411704   0.000000
     8  H    3.889000   2.489000   0.000000
     9  O    3.411704   4.311074   2.489000   0.000000
    10  H    2.161139   4.978000   4.311074   2.489000   0.000000
    11  O    1.089000   4.311074   4.978000   4.311074   2.489000
    12  H    2.264372   2.309015   4.198871   4.963655   4.398438
                   11         12
    11  O    0.000000
    12  H    2.654673   0.000000
 Stoichiometry    C4H4N2O2
 Framework group  CS[SG(C4H4N2O2)]
 Deg. of freedom    21
 Full point group                 CS      NOp   2
 Largest Abelian subgroup         CS      NOp   2
 Largest concise Abelian subgroup C1      NOp   1
                         Standard orientation:                         
 ---------------------------------------------------------------------
 Center     Atomic      Atomic             Coordinates (Angstroms)
 Number     Number       Type             X           Y           Z
 ---------------------------------------------------------------------
      1          7           0       -1.471145   -0.528793    0.000000
      2          6           0       -1.471145    0.871207    0.000000
      3          6           0       -0.258709    1.571207    0.000000
      4          6           0        0.953726    0.871207    0.000000
      5          7           0        0.953726   -0.528793    0.000000
      6          6           0       -0.258709   -1.228793    0.000000
      7          1           0       -2.414247    1.415707    0.000000
      8          1           0       -0.258709    2.660207    0.000000
      9          8           0        1.896828    1.415707    0.000000
     10          1           0        1.896828   -1.073293    0.000000
     11          8           0       -0.258709   -2.317793    0.000000
     12          1           0       -2.497864   -0.891793    0.000000
 ---------------------------------------------------------------------
 Rotational constants (GHZ):      3.9566531      2.1874104      1.4086482
 Leave Link  202 at Fri Oct 30 23:43:46 2015, MaxMem=    33554432 cpu:         0.0
 (Enter /group/hpc-share/gaussian/2009D/g09/l301.exe)
 Standard basis: Aug-CC-pVTZ (5D, 7F)
 Ernie: Thresh=  0.10000D-02 Tol=  0.10000D-05 Strict=F.
 Ernie:  24 primitive shells out of 284 were deleted.
 There are   368 symmetry adapted cartesian basis functions of A'  symmetry.
 There are   172 symmetry adapted cartesian basis functions of A"  symmetry.
 There are   304 symmetry adapted basis functions of A'  symmetry.
 There are   156 symmetry adapted basis functions of A"  symmetry.
   460 basis functions,   684 primitive gaussians,   540 cartesian basis functions
    29 alpha electrons       29 beta electrons
       nuclear repulsion energy       364.7240260238 Hartrees.
 IExCor=    0 DFT=F Ex=HF Corr=None ExCW=0 ScaHFX=  1.000000
 ScaDFX=  1.000000  1.000000  1.000000  1.000000 ScalE2=  1.000000  1.000000
 IRadAn=      0 IRanWt=     -1 IRanGd=            0 ICorTp=0 IEmpDi=  4
 NAtoms=   12 NActive=   12 NUniq=   12 SFac= 1.00D+00 NAtFMM=   60 NAOKFM=F Big=F
 Integral buffers will be    131072 words long.
 Raffenetti 1 integral format.
 Two-electron integral symmetry is turned on.
 Leave Link  301 at Fri Oct 30 23:43:47 2015, MaxMem=    33554432 cpu:         0.6
 (Enter /group/hpc-share/gaussian/2009D/g09/l302.exe)
 NPDir=0 NMtPBC=     1 NCelOv=     1 NCel=       1 NClECP=     1 NCelD=      1
         NCelK=      1 NCelE2=     1 NClLst=     1 CellRange=     0.0.
 One-electron integrals computed using PRISM.
 PrsmSu:  requested number of processors reduced to:   4 ShMem   1 Linda.
 NBasis=   460 RedAO= T EigKep=  6.33D-06  NBF=   304   156
 NBsUse=   460 1.00D-06 EigRej= -1.00D+00 NBFU=   304   156
 Leave Link  302 at Fri Oct 30 23:43:47 2015, MaxMem=    33554432 cpu:         3.3
 (Enter /group/hpc-share/gaussian/2009D/g09/l303.exe)
 DipDrv:  MaxL=1.
 Leave Link  303 at Fri Oct 30 23:43:47 2015, MaxMem=    33554432 cpu:         0.7
 (Enter /group/hpc-share/gaussian/2009D/g09/l401.exe)
 ExpMin= 2.53D-02 ExpMax= 1.53D+04 ExpMxC= 5.22D+02 IAcc=3 IRadAn=         5 AccDes= 0.00D+00
 Harris functional with IExCor=  205 and IRadAn=       5 diagonalized for initial guess.
 HarFok:  IExCor=  205 AccDes= 0.00D+00 IRadAn=         5 IDoV= 1 UseB2=F ITyADJ=14
 ICtDFT=  3500011 ScaDFX=  1.000000  1.000000  1.000000  1.000000
 FoFCou: FMM=F IPFlag=           0 FMFlag=      100000 FMFlg1=           0
         NFxFlg=           0 DoJE=T BraDBF=F KetDBF=T FulRan=T
         wScrn=  0.000000 ICntrl=     500 IOpCl=  0 I1Cent=   200000004 NGrid=           0
         NMat0=    1 NMatS0=      1 NMatT0=    0 NMatD0=    1 NMtDS0=    0 NMtDT0=    0
 Petite list used in FoFCou.
 Harris En= -412.912068612714    
 JPrj=0 DoOrth=F DoCkMO=F.
 Initial guess orbital symmetries:
       Occupied  (A') (A') (A') (A') (A') (A') (A') (A') (A') (A')
                 (A') (A') (A') (A') (A') (A') (A') (A') (A') (A")
                 (A') (A") (A') (A') (A") (A') (A') (A") (A")
       Virtual   (A") (A") (A') (A') (A') (A") (A') (A') (A") (A')
                 (A') (A") (A') (A") (A') (A') (A') (A') (A') (A')
                 (A') (A") (A') (A") (A') (A') (A') (A') (A") (A")
                 (A') (A') (A') (A') (A") (A') (A') (A") (A') (A')
                 (A') (A') (A') (A") (A') (A') (A") (A') (A") (A')
                 (A') (A") (A') (A') (A") (A') (A') (A') (A") (A")
                 (A") (A') (A") (A') (A') (A') (A') (A') (A') (A")
                 (A') (A') (A') (A') (A') (A") (A') (A') (A") (A')
                 (A') (A") (A') (A") (A") (A') (A') (A') (A') (A")
                 (A") (A') (A') (A') (A") (A') (A") (A') (A") (A')
                 (A') (A') (A") (A') (A") (A') (A') (A") (A') (A")
                 (A') (A') (A") (A") (A') (A') (A') (A") (A') (A')
                 (A") (A') (A') (A") (A') (A') (A') (A") (A") (A")
                 (A') (A') (A") (A') (A') (A') (A") (A') (A") (A')
                 (A') (A') (A") (A') (A") (A') (A") (A') (A') (A")
                 (A') (A") (A') (A') (A") (A") (A') (A') (A') (A")
                 (A") (A') (A') (A') (A") (A") (A') (A') (A') (A")
                 (A') (A') (A") (A') (A') (A") (A') (A") (A') (A')
                 (A') (A") (A') (A') (A") (A') (A') (A") (A') (A')
                 (A') (A") (A") (A') (A") (A') (A') (A") (A') (A')
                 (A") (A') (A') (A") (A') (A") (A') (A') (A') (A")
                 (A') (A') (A') (A") (A') (A") (A') (A") (A') (A")
                 (A') (A') (A') (A') (A") (A") (A') (A') (A") (A')
                 (A") (A') (A') (A") (A") (A') (A') (A") (A') (A")
                 (A') (A') (A") (A') (A') (A") (A') (A') (A") (A')
                 (A") (A') (A') (A') (A") (A") (A') (A') (A") (A")
                 (A') (A") (A') (A') (A") (A') (A') (A") (A') (A')
                 (A") (A') (A') (A") (A') (A') (A") (A') (A") (A')
                 (A') (A") (A') (A") (A') (A') (A") (A') (A') (A")
                 (A') (A") (A') (A") (A') (A") (A') (A') (A') (A')
                 (A") (A") (A') (A') (A") (A') (A") (A') (A") (A')
                 (A') (A') (A") (A") (A') (A') (A") (A") (A') (A")
                 (A') (A') (A") (A') (A") (A') (A') (A') (A") (A")
                 (A') (A') (A') (A') (A") (A') (A") (A") (A') (A')
                 (A') (A") (A') (A') (A') (A') (A") (A") (A') (A")
                 (A') (A') (A') (A') (A") (A") (A') (A') (A") (A')
                 (A") (A') (A") (A') (A") (A') (A') (A") (A') (A")
                 (A') (A") (A') (A') (A') (A") (A") (A') (A') (A")
                 (A") (A') (A') (A') (A') (A') (A') (A') (A') (A")
                 (A") (A') (A') (A') (A') (A') (A') (A') (A') (A")
                 (A') (A") (A') (A") (A") (A') (A') (A") (A') (A")
                 (A") (A') (A") (A') (A') (A') (A') (A') (A') (A')
                 (A') (A') (A') (A') (A') (A') (A') (A') (A') (A')
                 (A')
 The electronic state of the initial guess is 1-A'.
 Leave Link  401 at Fri Oct 30 23:43:49 2015, MaxMem=    33554432 cpu:        11.9
 (Enter /group/hpc-share/gaussian/2009D/g09/l502.exe)
 Closed shell SCF:
 Using DIIS extrapolation, IDIIS=  1040.
 Integral symmetry usage will be decided dynamically.
 IVT=      901694 IEndB=      901694 NGot=    33554432 MDV=    32961519
 LenX=    32961519 LenY=    32669379
 Requested convergence on RMS density matrix=1.00D-08 within 128 cycles.
 Requested convergence on MAX density matrix=1.00D-06.
 Requested convergence on             energy=1.00D-06.
 No special actions if energy rises.
 Fock matrices will be formed incrementally for  20 cycles.

 Cycle   1  Pass 0  IDiag  1:
 FoFJK:  IHMeth= 1 ICntrl=       0 DoSepK=F KAlg= 0 I1Cent=   0 FoldK=F
 IRaf= 980000000 NMat=   1 IRICut=       1 DoRegI=T DoRafI=F ISym2E= 1.
 FoFCou: FMM=F IPFlag=           0 FMFlag=      100000 FMFlg1=           0
         NFxFlg=           0 DoJE=F BraDBF=F KetDBF=F FulRan=T
         wScrn=  0.000000 ICntrl=       0 IOpCl=  0 I1Cent=           0 NGrid=           0
         NMat0=    1 NMatS0=      1 NMatT0=    0 NMatD0=    1 NMtDS0=    0 NMtDT0=    0
 Petite list used in FoFCou.
 E= -412.149538216095    
 DIIS: error= 2.99D-02 at cycle   1 NSaved=   1.
 NSaved= 1 IEnMin= 1 EnMin= -412.149538216095     IErMin= 1 ErrMin= 2.99D-02
 ErrMax= 2.99D-02  0.00D+00 EMaxC= 1.00D-01 BMatC= 9.16D-01 BMatP= 9.16D-01
 IDIUse=3 WtCom= 7.01D-01 WtEn= 2.99D-01
 Coeff-Com:  0.100D+01
 Coeff-En:   0.100D+01
 Coeff:      0.100D+01
 Gap=     0.327 Goal=   None    Shift=    0.000
 GapD=    0.327 DampG=1.000 DampE=0.500 DampFc=0.5000 IDamp=-1.
 Damping current iteration by 5.00D-01
 RMSDP=2.02D-03 MaxDP=1.21D-01              OVMax= 2.16D-01

 Cycle   2  Pass 0  IDiag  1:
 RMSU=  9.81D-04    CP:  9.71D-01
 E= -412.349027674943     Delta-E=       -0.199489458848 Rises=F Damp=T
 DIIS: error= 1.10D-02 at cycle   2 NSaved=   2.
 NSaved= 2 IEnMin= 2 EnMin= -412.349027674943     IErMin= 2 ErrMin= 1.10D-02
 ErrMax= 1.10D-02  0.00D+00 EMaxC= 1.00D-01 BMatC= 1.90D-01 BMatP= 9.16D-01
 IDIUse=3 WtCom= 8.90D-01 WtEn= 1.10D-01
 Coeff-Com: -0.586D+00 0.159D+01
 Coeff-En:   0.000D+00 0.100D+01
 Coeff:     -0.522D+00 0.152D+01
 Gap=     0.374 Goal=   None    Shift=    0.000
 RMSDP=9.85D-04 MaxDP=6.19D-02 DE=-1.99D-01 OVMax= 7.25D-02

 Cycle   3  Pass 0  IDiag  1:
 RMSU=  6.81D-04    CP:  9.62D-01  1.72D+00
 E= -412.529091167262     Delta-E=       -0.180063492320 Rises=F Damp=F
 DIIS: error= 4.70D-03 at cycle   3 NSaved=   3.
 NSaved= 3 IEnMin= 3 EnMin= -412.529091167262     IErMin= 3 ErrMin= 4.70D-03
 ErrMax= 4.70D-03  0.00D+00 EMaxC= 1.00D-01 BMatC= 1.17D-02 BMatP= 1.90D-01
 IDIUse=3 WtCom= 9.53D-01 WtEn= 4.70D-02
 Coeff-Com: -0.213D+00 0.389D+00 0.824D+00
 Coeff-En:   0.000D+00 0.000D+00 0.100D+01
 Coeff:     -0.203D+00 0.371D+00 0.832D+00
 Gap=     0.370 Goal=   None    Shift=    0.000
 RMSDP=1.72D-04 MaxDP=7.45D-03 DE=-1.80D-01 OVMax= 3.68D-02

 Cycle   4  Pass 0  IDiag  1:
 RMSU=  1.50D-04    CP:  9.62D-01  1.80D+00  9.63D-01
 E= -412.537542381428     Delta-E=       -0.008451214166 Rises=F Damp=F
 DIIS: error= 1.31D-03 at cycle   4 NSaved=   4.
 NSaved= 4 IEnMin= 4 EnMin= -412.537542381428     IErMin= 4 ErrMin= 1.31D-03
 ErrMax= 1.31D-03  0.00D+00 EMaxC= 1.00D-01 BMatC= 8.21D-04 BMatP= 1.17D-02
 IDIUse=3 WtCom= 9.87D-01 WtEn= 1.31D-02
 Coeff-Com: -0.417D-01 0.608D-01 0.263D+00 0.718D+00
 Coeff-En:   0.000D+00 0.000D+00 0.000D+00 0.100D+01
 Coeff:     -0.412D-01 0.600D-01 0.260D+00 0.722D+00
 Gap=     0.360 Goal=   None    Shift=    0.000
 RMSDP=4.81D-05 MaxDP=1.79D-03 DE=-8.45D-03 OVMax= 5.82D-03

 Cycle   5  Pass 0  IDiag  1:
 RMSU=  4.38D-05    CP:  9.62D-01  1.79D+00  9.88D-01  9.52D-01
 E= -412.538399938377     Delta-E=       -0.000857556949 Rises=F Damp=F
 DIIS: error= 5.33D-04 at cycle   5 NSaved=   5.
 NSaved= 5 IEnMin= 5 EnMin= -412.538399938377     IErMin= 5 ErrMin= 5.33D-04
 ErrMax= 5.33D-04  0.00D+00 EMaxC= 1.00D-01 BMatC= 5.49D-05 BMatP= 8.21D-04
 IDIUse=3 WtCom= 9.95D-01 WtEn= 5.33D-03
 Coeff-Com:  0.270D-01-0.470D-01-0.124D+00-0.149D+00 0.129D+01
 Coeff-En:   0.000D+00 0.000D+00 0.000D+00 0.000D+00 0.100D+01
 Coeff:      0.269D-01-0.467D-01-0.124D+00-0.148D+00 0.129D+01
 Gap=     0.362 Goal=   None    Shift=    0.000
 RMSDP=3.65D-05 MaxDP=1.71D-03 DE=-8.58D-04 OVMax= 7.49D-03

 Cycle   6  Pass 0  IDiag  1:
 RMSU=  1.84D-05    CP:  9.62D-01  1.79D+00  1.01D+00  1.08D+00  1.44D+00
 E= -412.538602403133     Delta-E=       -0.000202464756 Rises=F Damp=F
 DIIS: error= 2.27D-04 at cycle   6 NSaved=   6.
 NSaved= 6 IEnMin= 6 EnMin= -412.538602403133     IErMin= 6 ErrMin= 2.27D-04
 ErrMax= 2.27D-04  0.00D+00 EMaxC= 1.00D-01 BMatC= 8.58D-06 BMatP= 5.49D-05
 IDIUse=3 WtCom= 9.98D-01 WtEn= 2.27D-03
 Coeff-Com:  0.639D-02-0.102D-01-0.272D-01-0.948D-01 0.637D-01 0.106D+01
 Coeff-En:   0.000D+00 0.000D+00 0.000D+00 0.000D+00 0.000D+00 0.100D+01
 Coeff:      0.638D-02-0.101D-01-0.272D-01-0.946D-01 0.636D-01 0.106D+01
 Gap=     0.362 Goal=   None    Shift=    0.000
 RMSDP=1.24D-05 MaxDP=5.65D-04 DE=-2.02D-04 OVMax= 3.29D-03

 Cycle   7  Pass 0  IDiag  1:
 RMSU=  5.94D-06    CP:  9.63D-01  1.79D+00  1.02D+00  1.10D+00  1.59D+00
                    CP:  1.31D+00
 E= -412.538626811285     Delta-E=       -0.000024408152 Rises=F Damp=F
 DIIS: error= 8.19D-05 at cycle   7 NSaved=   7.
 NSaved= 7 IEnMin= 7 EnMin= -412.538626811285     IErMin= 7 ErrMin= 8.19D-05
 ErrMax= 8.19D-05  0.00D+00 EMaxC= 1.00D-01 BMatC= 1.61D-06 BMatP= 8.58D-06
 IDIUse=1 WtCom= 1.00D+00 WtEn= 0.00D+00
 Coeff-Com: -0.267D-02 0.471D-02 0.170D-01 0.123D-02-0.177D+00 0.183D+00
 Coeff-Com:  0.973D+00
 Coeff:     -0.267D-02 0.471D-02 0.170D-01 0.123D-02-0.177D+00 0.183D+00
 Coeff:      0.973D+00
 Gap=     0.363 Goal=   None    Shift=    0.000
 RMSDP=4.99D-06 MaxDP=2.72D-04 DE=-2.44D-05 OVMax= 8.47D-04

 Initial convergence to 1.0D-05 achieved.  Increase integral accuracy.
 Cycle   8  Pass 1  IDiag  1:
 E= -412.538630349165     Delta-E=       -0.000003537880 Rises=F Damp=F
 DIIS: error= 2.67D-05 at cycle   1 NSaved=   1.
 NSaved= 1 IEnMin= 1 EnMin= -412.538630349165     IErMin= 1 ErrMin= 2.67D-05
 ErrMax= 2.67D-05  0.00D+00 EMaxC= 1.00D-01 BMatC= 1.67D-07 BMatP= 1.67D-07
 IDIUse=1 WtCom= 1.00D+00 WtEn= 0.00D+00
 Coeff-Com:  0.100D+01
 Coeff:      0.100D+01
 Gap=     0.363 Goal=   None    Shift=    0.000
 RMSDP=4.99D-06 MaxDP=2.72D-04 DE=-3.54D-06 OVMax= 3.69D-04

 Cycle   9  Pass 1  IDiag  1:
 RMSU=  1.25D-06    CP:  1.00D+00
 E= -412.538630710826     Delta-E=       -0.000000361661 Rises=F Damp=F
 DIIS: error= 1.82D-05 at cycle   2 NSaved=   2.
 NSaved= 2 IEnMin= 2 EnMin= -412.538630710826     IErMin= 2 ErrMin= 1.82D-05
 ErrMax= 1.82D-05  0.00D+00 EMaxC= 1.00D-01 BMatC= 6.06D-08 BMatP= 1.67D-07
 IDIUse=1 WtCom= 1.00D+00 WtEn= 0.00D+00
 Coeff-Com:  0.208D+00 0.792D+00
 Coeff:      0.208D+00 0.792D+00
 Gap=     0.363 Goal=   None    Shift=    0.000
 RMSDP=6.40D-07 MaxDP=3.68D-05 DE=-3.62D-07 OVMax= 1.12D-04

 Cycle  10  Pass 1  IDiag  1:
 RMSU=  5.26D-07    CP:  1.00D+00  1.29D+00
 E= -412.538630821735     Delta-E=       -0.000000110909 Rises=F Damp=F
 DIIS: error= 1.03D-05 at cycle   3 NSaved=   3.
 NSaved= 3 IEnMin= 3 EnMin= -412.538630821735     IErMin= 3 ErrMin= 1.03D-05
 ErrMax= 1.03D-05  0.00D+00 EMaxC= 1.00D-01 BMatC= 1.87D-08 BMatP= 6.06D-08
 IDIUse=1 WtCom= 1.00D+00 WtEn= 0.00D+00
 Coeff-Com: -0.444D+00-0.989D-01 0.154D+01
 Coeff:     -0.444D+00-0.989D-01 0.154D+01
 Gap=     0.363 Goal=   None    Shift=    0.000
 RMSDP=9.40D-07 MaxDP=4.93D-05 DE=-1.11D-07 OVMax= 2.70D-04

 Cycle  11  Pass 1  IDiag  1:
 RMSU=  2.25D-07    CP:  1.00D+00  1.93D+00  1.78D+00
 E= -412.538630902829     Delta-E=       -0.000000081094 Rises=F Damp=F
 DIIS: error= 2.08D-06 at cycle   4 NSaved=   4.
 NSaved= 4 IEnMin= 4 EnMin= -412.538630902829     IErMin= 4 ErrMin= 2.08D-06
 ErrMax= 2.08D-06  0.00D+00 EMaxC= 1.00D-01 BMatC= 1.05D-09 BMatP= 1.87D-08
 IDIUse=1 WtCom= 1.00D+00 WtEn= 0.00D+00
 Coeff-Com: -0.392D-01-0.992D-01 0.160D+00 0.978D+00
 Coeff:     -0.392D-01-0.992D-01 0.160D+00 0.978D+00
 Gap=     0.363 Goal=   None    Shift=    0.000
 RMSDP=1.64D-07 MaxDP=9.45D-06 DE=-8.11D-08 OVMax= 4.87D-05

 Cycle  12  Pass 1  IDiag  1:
 RMSU=  7.38D-08    CP:  1.00D+00  2.02D+00  1.94D+00  1.24D+00
 E= -412.538630906195     Delta-E=       -0.000000003366 Rises=F Damp=F
 DIIS: error= 7.43D-07 at cycle   5 NSaved=   5.
 NSaved= 5 IEnMin= 5 EnMin= -412.538630906195     IErMin= 5 ErrMin= 7.43D-07
 ErrMax= 7.43D-07  0.00D+00 EMaxC= 1.00D-01 BMatC= 2.24D-10 BMatP= 1.05D-09
 IDIUse=1 WtCom= 1.00D+00 WtEn= 0.00D+00
 Coeff-Com:  0.688D-01-0.206D-01-0.223D+00 0.861D-01 0.109D+01
 Coeff:      0.688D-01-0.206D-01-0.223D+00 0.861D-01 0.109D+01
 Gap=     0.363 Goal=   None    Shift=    0.000
 RMSDP=1.00D-07 MaxDP=5.82D-06 DE=-3.37D-09 OVMax= 2.20D-05

 Cycle  13  Pass 1  IDiag  1:
 RMSU=  2.23D-08    CP:  1.00D+00  2.06D+00  2.05D+00  1.47D+00  1.31D+00
 E= -412.538630906812     Delta-E=       -0.000000000617 Rises=F Damp=F
 DIIS: error= 2.54D-07 at cycle   6 NSaved=   6.
 NSaved= 6 IEnMin= 6 EnMin= -412.538630906812     IErMin= 6 ErrMin= 2.54D-07
 ErrMax= 2.54D-07  0.00D+00 EMaxC= 1.00D-01 BMatC= 2.64D-11 BMatP= 2.24D-10
 IDIUse=1 WtCom= 1.00D+00 WtEn= 0.00D+00
 Coeff-Com:  0.243D-01 0.543D-02-0.641D-01-0.110D+00 0.262D+00 0.882D+00
 Coeff:      0.243D-01 0.543D-02-0.641D-01-0.110D+00 0.262D+00 0.882D+00
 Gap=     0.363 Goal=   None    Shift=    0.000
 RMSDP=1.53D-08 MaxDP=7.60D-07 DE=-6.17D-10 OVMax= 3.88D-06

 Cycle  14  Pass 1  IDiag  1:
 RMSU=  9.31D-09    CP:  1.00D+00  2.06D+00  2.06D+00  1.50D+00  1.42D+00
                    CP:  1.06D+00
 E= -412.538630906868     Delta-E=       -0.000000000055 Rises=F Damp=F
 DIIS: error= 8.36D-08 at cycle   7 NSaved=   7.
 NSaved= 7 IEnMin= 7 EnMin= -412.538630906868     IErMin= 7 ErrMin= 8.36D-08
 ErrMax= 8.36D-08  0.00D+00 EMaxC= 1.00D-01 BMatC= 2.86D-12 BMatP= 2.64D-11
 IDIUse=1 WtCom= 1.00D+00 WtEn= 0.00D+00
 Coeff-Com: -0.977D-02-0.239D-02 0.333D-01 0.704D-02-0.151D+00-0.976D-01
 Coeff-Com:  0.122D+01
 Coeff:     -0.977D-02-0.239D-02 0.333D-01 0.704D-02-0.151D+00-0.976D-01
 Coeff:      0.122D+01
 Gap=     0.363 Goal=   None    Shift=    0.000
 RMSDP=8.16D-09 MaxDP=3.51D-07 DE=-5.55D-11 OVMax= 1.82D-06

 SCF Done:  E(RHF) =  -412.538630907     A.U. after   14 cycles
            NFock= 14  Conv=0.82D-08     -V/T= 1.9990
 KE= 4.129427720143D+02 PE=-1.699070946571D+03 EE= 5.088655176262D+02
 Leave Link  502 at Fri Oct 30 23:52:35 2015, MaxMem=    33554432 cpu:      4203.6
 (Enter /group/hpc-share/gaussian/2009D/g09/l801.exe)
 ExpMin= 2.53D-02 ExpMax= 1.53D+04 ExpMxC= 5.22D+02 IAcc=3 IRadAn=         5 AccDes= 0.00D+00
 HarFok:  IExCor=  205 AccDes= 0.00D+00 IRadAn=         5 IDoV=-2 UseB2=F ITyADJ=14
 ICtDFT= 12500011 ScaDFX=  1.000000  1.000000  1.000000  1.000000
 DSYEVD-2 returned Info=          93 IAlg= 4 N=    46 NDim=    46 NE2=      715921 trying  DSYEV.
 Largest valence mixing into a core orbital is  2.01D-04
 Largest core mixing into a valence orbital is  3.27D-05
 Range of M.O.s used for correlation:     9   460
 NBasis=   460 NAE=    29 NBE=    29 NFC=     8 NFV=     0
 NROrb=    452 NOA=    21 NOB=    21 NVA=   431 NVB=   431

 **** Warning!!: The largest alpha MO coefficient is  0.10960743D+03

 Leave Link  801 at Fri Oct 30 23:52:36 2015, MaxMem=    33554432 cpu:         2.4
 (Enter /group/hpc-share/gaussian/2009D/g09/l906.exe)
 Frozen-core derivative calculation, NFC=   8 NFV=   0.
 FulOut=F Deriv=T AODrv=T NAtomX=    12
   MMem=           0  MDisk=          21 MDiskD=          21
  W3Min=     7203600 MinDsk=    11000930 NBas6D=         540
 NBas2D=      147402    NTT=      146070    LW2=     3500000
    MDV=    30924140 MDiskM=         267 NBas2p=      145010
 Disk-based method using ON**2 memory for 21 occupieds at a time.
 Estimated scratch disk usage=  5711879896 words.
 IMap=   1   2   3   4   5   6   7   8   9  10  11  12  13  14  15  16  17  18  19  20
 IMap=  21  22  23  24  25  26  27  28  29
 Actual    scratch disk usage=  5711614680 words.
 GetIJB would need an additional    50763912 words of memory to use all   8 processors.
 JobTyp=1 Pass  1:  I=   9 to  29 NPSUse=  3 ParTrn=F ParDer=T DoDerP=T.
 Spin components of T(2) and E(2):
     alpha-alpha T2 =       0.5647180710D-01 E2=     -0.1930245633D+00
     alpha-beta  T2 =       0.3004144605D+00 E2=     -0.1097207410D+01
     beta-beta   T2 =       0.5647180710D-01 E2=     -0.1930245633D+00
 The integrals were generated   1 times.
 ANorm=    0.1188847372D+01
 E2 =    -0.1483256537D+01 EUMP2 =    -0.41402188744400D+03
 Leave Link  906 at Sat Oct 31 00:32:31 2015, MaxMem=    33554432 cpu:      6460.3
 (Enter /group/hpc-share/gaussian/2009D/g09/l1002.exe)
 Minotr:  Closed shell wavefunction.
          Computing MP2/KS-MP2 derivatives.
          Using Z-Vector for PSCF gradient.
          Skipping F1 and S1 gradient terms here.
          IDoAtm=111111111111
          Frozen-core window.
          Direct CPHF calculation.
          Differentiating once with respect to electric field.
                with respect to dipole field.
          Differentiating once with respect to nuclear coordinates.
          Using symmetry in CPHF.
          Requested convergence is 1.0D-10 RMS, and 1.0D-09 maximum.
          NewPWx=F KeepS1=T KeepF1=T KeepIn=T MapXYZ=F SortEE=F KeepMc=T.
          MDV=      33553856 using IRadAn=       0.
          Solving linear equations separately, MaxMat=       0.
          There are     1 degrees of freedom in the 1st order CPHF.  IDoFFX=0 NUNeed=     1.
 FoFJK:  IHMeth= 1 ICntrl=       0 DoSepK=F KAlg= 0 I1Cent=   0 FoldK=F
 IRaf= 980000000 NMat=   1 IRICut=       1 DoRegI=T DoRafI=F ISym2E=-1.
 FoFCou: FMM=F IPFlag=           0 FMFlag=      100000 FMFlg1=           0
         NFxFlg=           0 DoJE=F BraDBF=F KetDBF=F FulRan=T
         wScrn=  0.000000 ICntrl=       0 IOpCl=  0 I1Cent=           0 NGrid=           0
         NMat0=    1 NMatS0=      1 NMatT0=    0 NMatD0=    1 NMtDS0=    0 NMtDT0=    0
 Petite list used in FoFCou.
 LinEq1:  Iter=  0 NonCon=     1 RMS=2.88D-03 Max=7.62D-02 NDo=     1
 AX will form     1 AO Fock derivatives at one time.
 LinEq1:  Iter=  1 NonCon=     1 RMS=8.50D-04 Max=1.85D-02 NDo=     1
 LinEq1:  Iter=  2 NonCon=     1 RMS=3.25D-04 Max=6.53D-03 NDo=     1
 LinEq1:  Iter=  3 NonCon=     1 RMS=1.28D-04 Max=2.98D-03 NDo=     1
 LinEq1:  Iter=  4 NonCon=     1 RMS=3.66D-05 Max=8.73D-04 NDo=     1
 LinEq1:  Iter=  5 NonCon=     1 RMS=1.03D-05 Max=2.50D-04 NDo=     1
 LinEq1:  Iter=  6 NonCon=     1 RMS=3.66D-06 Max=1.16D-04 NDo=     1
 LinEq1:  Iter=  7 NonCon=     1 RMS=1.27D-06 Max=3.95D-05 NDo=     1
 LinEq1:  Iter=  8 NonCon=     1 RMS=3.54D-07 Max=8.87D-06 NDo=     1
 LinEq1:  Iter=  9 NonCon=     1 RMS=1.12D-07 Max=1.95D-06 NDo=     1
 LinEq1:  Iter= 10 NonCon=     1 RMS=4.60D-08 Max=8.29D-07 NDo=     1
 LinEq1:  Iter= 11 NonCon=     1 RMS=1.20D-08 Max=1.91D-07 NDo=     1
 LinEq1:  Iter= 12 NonCon=     1 RMS=4.21D-09 Max=6.07D-08 NDo=     1
 LinEq1:  Iter= 13 NonCon=     1 RMS=1.66D-09 Max=4.08D-08 NDo=     1
 LinEq1:  Iter= 14 NonCon=     1 RMS=2.61D-10 Max=4.25D-09 NDo=     1
 LinEq1:  Iter= 15 NonCon=     1 RMS=6.97D-11 Max=1.80D-09 NDo=     1
 LinEq1:  Iter= 16 NonCon=     0 RMS=2.52D-11 Max=3.30D-10 NDo=     1
 Linear equations converged to 1.000D-10 1.000D-09 after    16 iterations.
 End of Minotr F.D. properties file   721 does not exist.
 End of Minotr F.D. properties file   722 does not exist.
 End of Minotr F.D. properties file   788 does not exist.
 Leave Link 1002 at Sat Oct 31 00:44:36 2015, MaxMem=    33554432 cpu:      5802.1
 (Enter /group/hpc-share/gaussian/2009D/g09/l601.exe)
 Copying SCF densities to generalized density rwf, IOpCl= 0 IROHF=0.

 **********************************************************************

            Population analysis using the SCF density.

 **********************************************************************

 Orbital symmetries:
       Occupied  (A') (A') (A') (A') (A') (A') (A') (A') (A') (A')
                 (A') (A') (A') (A') (A') (A') (A') (A') (A") (A')
                 (A') (A') (A") (A') (A") (A') (A") (A') (A")
       Virtual   (A') (A') (A') (A') (A") (A') (A") (A') (A') (A')
                 (A") (A") (A') (A') (A') (A") (A') (A') (A') (A')
                 (A") (A') (A") (A") (A') (A') (A") (A') (A') (A')
                 (A") (A') (A') (A') (A') (A") (A') (A") (A') (A')
                 (A') (A') (A') (A") (A') (A") (A') (A') (A") (A")
                 (A') (A') (A') (A") (A') (A") (A') (A') (A") (A')
                 (A') (A") (A") (A') (A') (A') (A') (A") (A') (A')
                 (A') (A') (A') (A') (A") (A') (A') (A") (A') (A')
                 (A") (A') (A") (A") (A') (A') (A') (A") (A') (A')
                 (A") (A") (A') (A') (A') (A') (A') (A') (A") (A')
                 (A") (A') (A') (A") (A') (A") (A') (A") (A') (A')
                 (A") (A') (A") (A") (A') (A') (A") (A') (A") (A')
                 (A') (A") (A') (A') (A") (A') (A") (A') (A') (A")
                 (A') (A') (A') (A") (A') (A') (A') (A") (A") (A')
                 (A') (A') (A') (A') (A") (A') (A") (A") (A') (A')
                 (A") (A') (A') (A") (A') (A") (A') (A") (A') (A")
                 (A') (A") (A') (A') (A") (A') (A') (A") (A') (A')
                 (A') (A") (A') (A') (A") (A') (A") (A') (A') (A")
                 (A') (A") (A') (A") (A') (A') (A') (A') (A') (A')
                 (A") (A") (A') (A") (A") (A') (A') (A') (A") (A')
                 (A") (A') (A') (A") (A") (A') (A') (A") (A') (A')
                 (A') (A') (A') (A") (A') (A') (A") (A') (A") (A")
                 (A') (A') (A") (A') (A') (A") (A') (A") (A') (A')
                 (A") (A") (A') (A') (A") (A') (A') (A") (A") (A')
                 (A') (A') (A") (A') (A") (A') (A') (A') (A") (A")
                 (A') (A') (A') (A") (A') (A') (A") (A') (A") (A')
                 (A") (A") (A') (A') (A") (A') (A') (A') (A") (A')
                 (A") (A') (A') (A") (A') (A') (A') (A") (A') (A")
                 (A') (A") (A') (A") (A') (A") (A') (A') (A") (A')
                 (A') (A") (A') (A") (A') (A') (A") (A') (A') (A')
                 (A") (A') (A") (A") (A') (A") (A') (A') (A") (A')
                 (A') (A") (A') (A") (A') (A') (A") (A") (A') (A")
                 (A") (A') (A') (A") (A') (A') (A") (A") (A') (A')
                 (A') (A") (A') (A') (A') (A") (A") (A') (A') (A')
                 (A") (A') (A') (A') (A") (A") (A') (A') (A") (A')
                 (A') (A') (A') (A') (A") (A') (A') (A') (A") (A')
                 (A') (A") (A") (A") (A') (A") (A') (A") (A') (A")
                 (A') (A") (A') (A') (A") (A") (A') (A") (A') (A')
                 (A") (A') (A') (A') (A') (A') (A') (A') (A') (A')
                 (A") (A') (A") (A') (A') (A') (A') (A') (A') (A')
                 (A") (A") (A') (A') (A") (A") (A') (A') (A") (A")
                 (A') (A') (A") (A') (A") (A') (A') (A') (A') (A')
                 (A') (A') (A') (A') (A') (A') (A') (A') (A') (A')
                 (A')
 The electronic state is 1-A'.
 Alpha  occ. eigenvalues --  -20.53504 -20.52051 -15.63255 -15.60502 -11.38888
 Alpha  occ. eigenvalues --  -11.33242 -11.32965 -11.23442  -1.50543  -1.48029
 Alpha  occ. eigenvalues --   -1.28716  -1.21918  -1.05394  -0.91463  -0.85795
 Alpha  occ. eigenvalues --   -0.78415  -0.75595  -0.70308  -0.67962  -0.67714
 Alpha  occ. eigenvalues --   -0.66443  -0.62457  -0.61197  -0.58386  -0.51867
 Alpha  occ. eigenvalues --   -0.48519  -0.43427  -0.43245  -0.34615
 Alpha virt. eigenvalues --    0.01642   0.03566   0.03971   0.05127   0.06166
 Alpha virt. eigenvalues --    0.07672   0.08630   0.08976   0.09444   0.10578
 Alpha virt. eigenvalues --    0.10646   0.11086   0.11174   0.12353   0.12603
 Alpha virt. eigenvalues --    0.13743   0.14209   0.14551   0.15514   0.16015
 Alpha virt. eigenvalues --    0.16498   0.17804   0.20062   0.20733   0.21108
 Alpha virt. eigenvalues --    0.21489   0.21814   0.22707   0.24428   0.24857
 Alpha virt. eigenvalues --    0.26360   0.26365   0.26403   0.26889   0.27665
 Alpha virt. eigenvalues --    0.27787   0.29137   0.29682   0.30084   0.31107
 Alpha virt. eigenvalues --    0.31240   0.32522   0.33716   0.33741   0.35045
 Alpha virt. eigenvalues --    0.35888   0.35890   0.36775   0.36815   0.38685
 Alpha virt. eigenvalues --    0.38738   0.39886   0.42213   0.43197   0.43351
 Alpha virt. eigenvalues --    0.43859   0.44081   0.44724   0.45875   0.46370
 Alpha virt. eigenvalues --    0.47051   0.47209   0.48549   0.49723   0.50529
 Alpha virt. eigenvalues --    0.51085   0.52389   0.52818   0.53291   0.54415
 Alpha virt. eigenvalues --    0.54597   0.56959   0.58728   0.59509   0.59648
 Alpha virt. eigenvalues --    0.60486   0.62458   0.62865   0.63373   0.66358
 Alpha virt. eigenvalues --    0.66694   0.66832   0.67353   0.68863   0.69000
 Alpha virt. eigenvalues --    0.70297   0.71368   0.72317   0.72624   0.74993
 Alpha virt. eigenvalues --    0.75134   0.76890   0.77588   0.78498   0.78922
 Alpha virt. eigenvalues --    0.80911   0.81872   0.83697   0.84075   0.84923
 Alpha virt. eigenvalues --    0.84987   0.86649   0.87220   0.88765   0.89393
 Alpha virt. eigenvalues --    0.89957   0.91819   0.92244   0.93038   0.94041
 Alpha virt. eigenvalues --    0.94541   0.94825   0.95215   0.96924   0.97034
 Alpha virt. eigenvalues --    0.98594   0.99532   1.00919   1.02010   1.02674
 Alpha virt. eigenvalues --    1.03495   1.03590   1.03776   1.06200   1.09020
 Alpha virt. eigenvalues --    1.09383   1.10217   1.10517   1.11945   1.12465
 Alpha virt. eigenvalues --    1.13417   1.14517   1.14858   1.15731   1.16599
 Alpha virt. eigenvalues --    1.18168   1.18717   1.19272   1.19696   1.20512
 Alpha virt. eigenvalues --    1.22149   1.23215   1.23671   1.25286   1.25623
 Alpha virt. eigenvalues --    1.27924   1.29248   1.29556   1.30918   1.31418
 Alpha virt. eigenvalues --    1.32762   1.35132   1.37425   1.37944   1.40182
 Alpha virt. eigenvalues --    1.40756   1.41102   1.42075   1.43684   1.44644
 Alpha virt. eigenvalues --    1.45723   1.45888   1.46622   1.47943   1.48179
 Alpha virt. eigenvalues --    1.49881   1.51844   1.52050   1.54190   1.55322
 Alpha virt. eigenvalues --    1.58663   1.59373   1.60055   1.61249   1.62070
 Alpha virt. eigenvalues --    1.63267   1.64865   1.65233   1.67267   1.67937
 Alpha virt. eigenvalues --    1.70163   1.73214   1.75762   1.77253   1.78182
 Alpha virt. eigenvalues --    1.80599   1.82351   1.85221   1.86759   1.88543
 Alpha virt. eigenvalues --    1.88633   1.90761   1.91288   1.91783   1.93166
 Alpha virt. eigenvalues --    1.95361   1.98044   2.00549   2.00933   2.04563
 Alpha virt. eigenvalues --    2.06252   2.06806   2.12355   2.12706   2.15752
 Alpha virt. eigenvalues --    2.15915   2.16586   2.19364   2.19489   2.22013
 Alpha virt. eigenvalues --    2.22925   2.26581   2.31780   2.32031   2.33019
 Alpha virt. eigenvalues --    2.34517   2.35185   2.36785   2.37578   2.37972
 Alpha virt. eigenvalues --    2.39054   2.40204   2.43456   2.43675   2.44704
 Alpha virt. eigenvalues --    2.46524   2.47957   2.49660   2.54799   2.55941
 Alpha virt. eigenvalues --    2.56157   2.57732   2.58071   2.59925   2.62282
 Alpha virt. eigenvalues --    2.62765   2.66417   2.66622   2.68797   2.69791
 Alpha virt. eigenvalues --    2.70436   2.71783   2.73496   2.74359   2.74816
 Alpha virt. eigenvalues --    2.79266   2.81075   2.84672   2.88924   2.92122
 Alpha virt. eigenvalues --    2.92376   2.94785   2.95591   2.98166   2.99321
 Alpha virt. eigenvalues --    3.05968   3.07029   3.09861   3.11815   3.16295
 Alpha virt. eigenvalues --    3.18385   3.19751   3.22802   3.27611   3.31869
 Alpha virt. eigenvalues --    3.32404   3.34718   3.37351   3.38309   3.39602
 Alpha virt. eigenvalues --    3.44343   3.44451   3.45660   3.47751   3.48400
 Alpha virt. eigenvalues --    3.50475   3.52759   3.54223   3.59111   3.59543
 Alpha virt. eigenvalues --    3.64904   3.67026   3.67779   3.71478   3.71849
 Alpha virt. eigenvalues --    3.75015   3.75359   3.78190   3.78984   3.82175
 Alpha virt. eigenvalues --    3.84632   3.85488   3.86502   3.92710   3.93491
 Alpha virt. eigenvalues --    3.96429   3.97591   3.99275   4.01325   4.01943
 Alpha virt. eigenvalues --    4.04085   4.05908   4.06366   4.08692   4.08780
 Alpha virt. eigenvalues --    4.15038   4.17407   4.17549   4.23541   4.25762
 Alpha virt. eigenvalues --    4.26705   4.28951   4.29616   4.32522   4.33914
 Alpha virt. eigenvalues --    4.35820   4.39999   4.40577   4.41518   4.43255
 Alpha virt. eigenvalues --    4.44079   4.47695   4.50543   4.52786   4.53888
 Alpha virt. eigenvalues --    4.57768   4.59583   4.61238   4.62591   4.65659
 Alpha virt. eigenvalues --    4.67460   4.73937   4.74314   4.77906   4.78793
 Alpha virt. eigenvalues --    4.80424   4.83834   4.84352   4.88876   4.92603
 Alpha virt. eigenvalues --    4.94130   4.94248   4.98673   5.05251   5.06124
 Alpha virt. eigenvalues --    5.07299   5.08081   5.12268   5.14651   5.18662
 Alpha virt. eigenvalues --    5.20689   5.22121   5.26036   5.33523   5.36349
 Alpha virt. eigenvalues --    5.38332   5.40181   5.44879   5.48053   5.50063
 Alpha virt. eigenvalues --    5.51699   5.52638   5.55170   5.59041   5.60058
 Alpha virt. eigenvalues --    5.62651   5.62963   5.68977   5.71985   5.75296
 Alpha virt. eigenvalues --    5.79059   5.80062   5.82765   5.90103   5.90253
 Alpha virt. eigenvalues --    5.96426   5.99008   6.00717   6.01186   6.04986
 Alpha virt. eigenvalues --    6.05353   6.12807   6.15605   6.21205   6.33256
 Alpha virt. eigenvalues --    6.48169   6.52073   6.55059   6.56931   6.62909
 Alpha virt. eigenvalues --    6.66109   6.67705   6.69203   6.69685   6.77548
 Alpha virt. eigenvalues --    6.78876   6.82001   6.84080   6.90012   6.96612
 Alpha virt. eigenvalues --    7.00252   7.06121   7.12433   7.29805   7.35569
 Alpha virt. eigenvalues --    7.42701   7.45035   7.47388   7.47584   7.48185
 Alpha virt. eigenvalues --    7.51524   7.56061   7.58986   7.60788   7.67158
 Alpha virt. eigenvalues --    7.87051   7.91002   7.96121   7.99594   8.08623
 Alpha virt. eigenvalues --    8.14887   8.16562   8.33252  15.11915  15.58704
 Alpha virt. eigenvalues --   17.37231  18.50595  19.21018  20.37173  20.75774
 Alpha virt. eigenvalues --   21.02031
          Condensed to atoms (all electrons):
               1          2          3          4          5          6
     1  N    6.472022   0.315455  -0.084447  -0.052498  -0.063648   0.287603
     2  C    0.315455   6.380999  -0.108889   0.139812  -0.017437  -0.430050
     3  C   -0.084447  -0.108889   6.687882  -0.420006  -0.075380   0.171435
     4  C   -0.052498   0.139812  -0.420006   5.606362   0.387108  -0.378400
     5  N   -0.063648  -0.017437  -0.075380   0.387108   6.481123   0.213303
     6  C    0.287603  -0.430050   0.171435  -0.378400   0.213303   5.431604
     7  H   -0.056799   0.158372  -0.112235   0.033823   0.002330  -0.013360
     8  H    0.010745  -0.043776   0.391813  -0.227548   0.014227   0.004381
     9  O   -0.002222   0.020892  -0.250846   0.509937  -0.220320  -0.008992
    10  H   -0.000734   0.002428   0.011808  -0.091098   0.400842  -0.057061
    11  O   -0.182720  -0.031638   0.016530  -0.036146  -0.162305   0.621487
    12  H    0.429244  -0.057053   0.011704   0.001026   0.001797  -0.060946
               7          8          9         10         11         12
     1  N   -0.056799   0.010745  -0.002222  -0.000734  -0.182720   0.429244
     2  C    0.158372  -0.043776   0.020892   0.002428  -0.031638  -0.057053
     3  C   -0.112235   0.391813  -0.250846   0.011808   0.016530   0.011704
     4  C    0.033823  -0.227548   0.509937  -0.091098  -0.036146   0.001026
     5  N    0.002330   0.014227  -0.220320   0.400842  -0.162305   0.001797
     6  C   -0.013360   0.004381  -0.008992  -0.057061   0.621487  -0.060946
     7  H    0.382442  -0.071521  -0.000942   0.000211  -0.000523   0.003673
     8  H   -0.071521   0.575115  -0.008179   0.000833  -0.000238  -0.000022
     9  O   -0.000942  -0.008179   8.756841  -0.009796  -0.005106   0.000188
    10  H    0.000211   0.000833  -0.009796   0.557962   0.009815  -0.001178
    11  O   -0.000523  -0.000238  -0.005106   0.009815   8.491295  -0.006147
    12  H    0.003673  -0.000022   0.000188  -0.001178  -0.006147   0.531123
 Mulliken charges:
               1
     1  N   -0.072004
     2  C   -0.329115
     3  C   -0.239369
     4  C    0.527630
     5  N    0.038360
     6  C    0.218997
     7  H    0.674529
     8  H    0.354170
     9  O   -0.781455
    10  H    0.175969
    11  O   -0.714303
    12  H    0.146591
 Sum of Mulliken charges =   0.00000
 Mulliken charges with hydrogens summed into heavy atoms:
               1
     1  N    0.074588
     2  C    0.345414
     3  C    0.114800
     4  C    0.527630
     5  N    0.214329
     6  C    0.218997
     9  O   -0.781455
    11  O   -0.714303
 Electronic spatial extent (au):  <R**2>=            791.1417
 Charge=              0.0000 electrons
 Dipole moment (field-independent basis, Debye):
    X=             -4.0279    Y=              0.5683    Z=              0.0000  Tot=              4.0678
 Quadrupole moment (field-independent basis, Debye-Ang):
   XX=            -38.2892   YY=            -53.4822   ZZ=            -46.5283
   XY=             -7.5676   XZ=              0.0000   YZ=              0.0000
 Traceless Quadrupole moment (field-independent basis, Debye-Ang):
   XX=              7.8107   YY=             -7.3823   ZZ=             -0.4284
   XY=             -7.5676   XZ=              0.0000   YZ=              0.0000
 Octapole moment (field-independent basis, Debye-Ang**2):
  XXX=            -30.3194  YYY=             19.6750  ZZZ=              0.0000  XYY=             -5.3984
  XXY=            -19.9468  XXZ=              0.0000  XZZ=              3.7925  YZZ=             -4.5415
  YYZ=              0.0000  XYZ=              0.0000
 Hexadecapole moment (field-independent basis, Debye-Ang**3):
 XXXX=           -352.5865 YYYY=           -572.3912 ZZZZ=            -46.4214 XXXY=            -72.4929
 XXXZ=              0.0000 YYYX=            -67.5939 YYYZ=              0.0000 ZZZX=              0.0000
 ZZZY=              0.0000 XXYY=           -155.3277 XXZZ=            -81.0659 YYZZ=            -98.1666
 XXYZ=              0.0000 YYXZ=              0.0000 ZZXY=            -10.9086
 N-N= 3.647240260238D+02 E-N=-1.699070954139D+03  KE= 4.129427720143D+02
 Symmetry A'   KE= 3.969637782928D+02
 Symmetry A"   KE= 1.597899372147D+01
 No NMR shielding tensors so no spin-rotation constants.
 Leave Link  601 at Sat Oct 31 00:44:38 2015, MaxMem=    33554432 cpu:         7.4
 (Enter /group/hpc-share/gaussian/2009D/g09/l701.exe)
 Compute integral first derivatives.
 ... and contract with generalized density number  2.
 PrsmSu:  requested number of processors reduced to:   4 ShMem   1 Linda.
 Leave Link  701 at Sat Oct 31 00:44:38 2015, MaxMem=    33554432 cpu:         2.8
 (Enter /group/hpc-share/gaussian/2009D/g09/l702.exe)
 L702 exits ... SP integral derivatives will be done elsewhere.
 Leave Link  702 at Sat Oct 31 00:44:38 2015, MaxMem=    33554432 cpu:         0.3
 (Enter /group/hpc-share/gaussian/2009D/g09/l703.exe)
 Compute integral first derivatives, UseDBF=F ICtDFT=           0.
 Integral derivatives from FoFJK, PRISM(SPDF).
 Calling FoFJK, ICntrl=  10002127 FMM=F ISym2X=1 I1Cent= 0 IOpClX= 0 NMat=1 NMatS=1 NMatT=0.
 FoFJK:  IHMeth= 1 ICntrl=10002127 DoSepK=F KAlg= 0 I1Cent=   0 FoldK=F
 IRaf=         0 NMat=   1 IRICut=       1 DoRegI=T DoRafI=F ISym2E= 1.
 FoFCou: FMM=F IPFlag=           0 FMFlag=      100000 FMFlg1=         800
         NFxFlg=           0 DoJE=F BraDBF=F KetDBF=F FulRan=T
         wScrn=  0.000000 ICntrl=10002127 IOpCl=  0 I1Cent=           0 NGrid=           0
         NMat0=    1 NMatS0=      1 NMatT0=    0 NMatD0=    1 NMtDS0=    0 NMtDT0=    0
 Petite list used in FoFCou.
 Leave Link  703 at Sat Oct 31 00:48:16 2015, MaxMem=    33554432 cpu:      1739.9
 (Enter /group/hpc-share/gaussian/2009D/g09/l716.exe)
 Dipole        =-1.37563207D+00 1.80486186D-01-5.44727194D-32
 ***** Axes restored to original set *****
 -------------------------------------------------------------------
 Center     Atomic                   Forces (Hartrees/Bohr)
 Number     Number              X              Y              Z
 -------------------------------------------------------------------
      1        7          -0.055427863    0.000000000    0.061409053
      2        6           0.046489813    0.000000000    0.016958512
      3        6          -0.105097212    0.000000000   -0.012100917
      4        6          -0.189526839    0.000000000   -0.138481741
      5        7          -0.009710956    0.000000000   -0.001275802
      6        6           0.007736826    0.000000000    0.222534361
      7        1           0.001490386    0.000000000   -0.008963275
      8        1           0.003202471    0.000000000   -0.009121212
      9        8           0.290772042    0.000000000    0.157769731
     10        1          -0.051172260    0.000000000    0.025957585
     11        8          -0.003514455    0.000000000   -0.309371973
     12        1           0.064758047    0.000000000   -0.005314324
 -------------------------------------------------------------------
 Cartesian Forces:  Max     0.309371973 RMS     0.096912376
 Leave Link  716 at Sat Oct 31 00:48:16 2015, MaxMem=    33554432 cpu:         0.8
 (Enter /group/hpc-share/gaussian/2009D/g09/l103.exe)

 GradGradGradGradGradGradGradGradGradGradGradGradGradGradGradGradGradGrad
 Berny optimization.
 FormGI is forming the generalized inverse of G from B-inverse, IUseBI=4.
 Internal  Forces:  Max     0.330700841 RMS     0.064930036
 Search for a local minimum.
 Step number   1 out of a maximum of   64
 All quantities printed in internal units (Hartrees-Bohrs-Radians)
 RMS Force = .64930D-01 SwitMx=.10000D-02 MixMth= 1
 Mixed Optimization -- RFO/linear search
 Second derivative matrix not updated -- first step.
 ITU=  0
     Eigenvalues ---    0.01692   0.01692   0.01692   0.01692   0.01771
     Eigenvalues ---    0.01871   0.01908   0.02007   0.02089   0.16000
     Eigenvalues ---    0.16000   0.16000   0.16000   0.22000   0.23478
     Eigenvalues ---    0.23493   0.25000   0.25000   0.34928   0.34928
     Eigenvalues ---    0.34928   0.34928   0.41547   0.41738   0.45621
     Eigenvalues ---    0.45621   0.45621   0.45621   1.88291   1.88291
 RFO step:  Lambda=-1.50824836D-01 EMin= 1.69178031D-02
 Linear search not attempted -- first point.
 Maximum step size (   0.300) exceeded in Quadratic search.
    -- Step size scaled by   0.739
 Iteration  1 RMS(Cart)=  0.05069003 RMS(Int)=  0.00083406
 Iteration  2 RMS(Cart)=  0.00110098 RMS(Int)=  0.00014873
 Iteration  3 RMS(Cart)=  0.00000075 RMS(Int)=  0.00014873
 ITry= 1 IFail=0 DXMaxC= 1.80D-01 DCOld= 1.00D+10 DXMaxT= 3.00D-01 DXLimC= 3.00D+00 Rises=F
 ClnCor:  largest displacement from symmetrization is 9.60D-10 for atom    11.
 Variable       Old X    -DE/DX   Delta X   Delta X   Delta X     New X
                                 (Linear)    (Quad)   (Total)
    R1        2.64562  -0.01324   0.00000  -0.01801  -0.01822   2.62740
    R2        2.64562   0.00734   0.00000   0.00779   0.00782   2.65344
    R3        2.05791  -0.05928   0.00000  -0.08756  -0.08756   1.97035
    R4        2.64562  -0.04616   0.00000  -0.05693  -0.05718   2.58844
    R5        2.05791  -0.00577   0.00000  -0.00853  -0.00853   2.04939
    R6        2.64562   0.05270   0.00000   0.06527   0.06523   2.71084
    R7        2.05791  -0.00912   0.00000  -0.01347  -0.01347   2.04444
    R8        2.64562   0.01930   0.00000   0.02538   0.02560   2.67122
    R9        2.05791   0.33070   0.00000   0.12011   0.12011   2.17802
   R10        2.64562   0.00425   0.00000   0.00593   0.00618   2.65179
   R11        2.05791  -0.05730   0.00000  -0.08462  -0.08462   1.97329
   R12        2.05791   0.30937   0.00000   0.11236   0.11236   2.17027
    A1        2.09440   0.02299   0.00000   0.03872   0.03855   2.13294
    A2        1.91063   0.01587   0.00000   0.04568   0.04576   1.95639
    A3        2.27816  -0.03886   0.00000  -0.08439  -0.08431   2.19385
    A4        2.09440   0.01216   0.00000   0.01779   0.01733   2.11173
    A5        2.09440  -0.01330   0.00000  -0.02605  -0.02582   2.06857
    A6        2.09440   0.00114   0.00000   0.00826   0.00849   2.10289
    A7        2.09440   0.00578   0.00000   0.01015   0.00986   2.10425
    A8        2.09440   0.00041   0.00000   0.00275   0.00290   2.09730
    A9        2.09440  -0.00618   0.00000  -0.01291  -0.01276   2.08164
   A10        2.09440  -0.03967   0.00000  -0.07025  -0.07007   2.02432
   A11        2.09440   0.02884   0.00000   0.05172   0.05163   2.14603
   A12        2.09440   0.01083   0.00000   0.01853   0.01844   2.11283
   A13        2.09440   0.03972   0.00000   0.08155   0.08201   2.17640
   A14        2.09440  -0.01666   0.00000  -0.03318  -0.03341   2.06099
   A15        2.09440  -0.02306   0.00000  -0.04837  -0.04860   2.04580
   A16        2.09440  -0.04098   0.00000  -0.07797  -0.07767   2.01672
   A17        2.09440   0.01688   0.00000   0.03232   0.03217   2.12657
   A18        2.09440   0.02411   0.00000   0.04565   0.04550   2.13989
    D1        0.00000   0.00000   0.00000   0.00000   0.00000   0.00000
    D2        3.14159   0.00000   0.00000   0.00000   0.00000   3.14159
    D3        3.14159   0.00000   0.00000   0.00000   0.00000   3.14159
    D4        0.00000   0.00000   0.00000   0.00000   0.00000   0.00000
    D5        0.00000   0.00000   0.00000   0.00000   0.00000   0.00000
    D6        3.14159   0.00000   0.00000   0.00000   0.00000   3.14159
    D7        3.14159   0.00000   0.00000   0.00000   0.00000   3.14159
    D8        0.00000   0.00000   0.00000   0.00000   0.00000   0.00000
    D9        0.00000   0.00000   0.00000   0.00000   0.00000   0.00000
   D10        3.14159   0.00000   0.00000   0.00000   0.00000   3.14159
   D11        3.14159   0.00000   0.00000   0.00000   0.00000   3.14159
   D12        0.00000   0.00000   0.00000   0.00000   0.00000   0.00000
   D13        0.00000   0.00000   0.00000   0.00000   0.00000   0.00000
   D14        3.14159   0.00000   0.00000   0.00000   0.00000   3.14159
   D15        3.14159   0.00000   0.00000   0.00000   0.00000   3.14159
   D16        0.00000   0.00000   0.00000   0.00000   0.00000   0.00000
   D17        0.00000   0.00000   0.00000   0.00000   0.00000   0.00000
   D18        3.14159   0.00000   0.00000   0.00000   0.00000   3.14159
   D19        3.14159   0.00000   0.00000   0.00000   0.00000   3.14159
   D20        0.00000   0.00000   0.00000   0.00000   0.00000   0.00000
   D21        0.00000   0.00000   0.00000   0.00000   0.00000   0.00000
   D22        3.14159   0.00000   0.00000   0.00000   0.00000   3.14159
   D23        3.14159   0.00000   0.00000   0.00000   0.00000   3.14159
   D24        0.00000   0.00000   0.00000   0.00000   0.00000   0.00000
         Item               Value     Threshold  Converged?
 Maximum Force            0.330701     0.000450     NO 
 RMS     Force            0.064930     0.000300     NO 
 Maximum Displacement     0.180462     0.001800     NO 
 RMS     Displacement     0.050754     0.001200     NO 
 Predicted change in Energy=-7.704390D-02
 Lowest energy point so far.  Saving SCF results.
 GradGradGradGradGradGradGradGradGradGradGradGradGradGradGradGradGradGrad

 Leave Link  103 at Sat Oct 31 00:48:16 2015, MaxMem=    33554432 cpu:         1.4
 (Enter /group/hpc-share/gaussian/2009D/g09/l202.exe)
                          Input orientation:                          
 ---------------------------------------------------------------------
 Center     Atomic      Atomic             Coordinates (Angstroms)
 Number     Number       Type             X           Y           Z
 ---------------------------------------------------------------------
      1          7           0        0.010676    0.000000    0.019969
      2          6           0        0.014443    0.000000    1.410324
      3          6           0        1.190533    0.000000    2.112468
      4          6           0        2.450045    0.000000    1.425834
      5          7           0        2.385622    0.000000    0.013756
      6          6           0        1.196705    0.000000   -0.731657
      7          1           0       -0.937034    0.000000    1.930715
      8          1           0        1.177853    0.000000    3.194264
      9          8           0        3.463469    0.000000    1.974801
     10          1           0        3.283514    0.000000   -0.519333
     11          8           0        1.186271    0.000000   -1.880069
     12          1           0       -0.956489    0.000000   -0.369572
 ---------------------------------------------------------------------
                    Distance matrix (angstroms):
                    1          2          3          4          5
     1  N    0.000000
     2  C    1.390360   0.000000
     3  C    2.402210   1.369742   0.000000
     4  C    2.815489   2.435652   1.434516   0.000000
     5  N    2.374954   2.751888   2.415125   1.413547   0.000000
     6  C    1.404138   2.446594   2.844131   2.495121   1.403269
     7  H    2.132863   1.084488   2.135316   3.424501   3.835984
     8  H    3.382078   2.129781   1.081871   2.178490   3.402108
     9  O    3.967764   3.494913   2.277101   1.152559   2.237734
    10  H    3.316974   3.796103   3.362580   2.116210   1.044219
    11  O    2.234316   3.492831   3.992539   3.539226   2.241655
    12  H    1.042666   2.027496   3.281802   3.850709   3.364023
                    6          7          8          9         10
     6  C    0.000000
     7  H    3.411900   0.000000
     8  H    3.925966   2.463595   0.000000
     9  O    3.530317   4.400724   2.590585   0.000000
    10  H    2.097583   4.880139   4.269029   2.500618   0.000000
    11  O    1.148460   4.362396   5.074341   4.477238   2.500006
    12  H    2.183426   2.300369   4.154076   5.003211   4.242647
                   11         12
    11  O    0.000000
    12  H    2.621646   0.000000
 Stoichiometry    C4H4N2O2
 Framework group  CS[SG(C4H4N2O2)]
 Deg. of freedom    21
 Full point group                 CS      NOp   2
 RotChk:  IX=1 Diff= 1.43D+00
 Largest Abelian subgroup         CS      NOp   2
 Largest concise Abelian subgroup C1      NOp   1
                         Standard orientation:                         
 ---------------------------------------------------------------------
 Center     Atomic      Atomic             Coordinates (Angstroms)
 Number     Number       Type             X           Y           Z
 ---------------------------------------------------------------------
      1          7           0       -1.161355    1.028127    0.000000
      2          6           0        0.051496    1.707901    0.000000
      3          6           0        1.240855    1.028476    0.000000
      4          6           0        1.261571   -0.405891    0.000000
      5          7           0        0.000000   -1.043505    0.000000
      6          6           0       -1.233348   -0.374164    0.000000
      7          1           0        0.037315    2.792297    0.000000
      8          1           0        2.176871    1.570987    0.000000
      9          8           0        2.237598   -1.018887    0.000000
     10          1           0       -0.023203   -2.087467    0.000000
     11          8           0       -2.238742   -0.929270    0.000000
     12          1           0       -1.975796    1.679155    0.000000
 ---------------------------------------------------------------------
 Rotational constants (GHZ):      3.9137437      2.0725677      1.3550078
 Leave Link  202 at Sat Oct 31 00:48:20 2015, MaxMem=    33554432 cpu:         0.0
 (Enter /group/hpc-share/gaussian/2009D/g09/l301.exe)
 Standard basis: Aug-CC-pVTZ (5D, 7F)
 Ernie: Thresh=  0.10000D-02 Tol=  0.10000D-05 Strict=F.
 Ernie:  24 primitive shells out of 284 were deleted.
 There are   368 symmetry adapted cartesian basis functions of A'  symmetry.
 There are   172 symmetry adapted cartesian basis functions of A"  symmetry.
 There are   304 symmetry adapted basis functions of A'  symmetry.
 There are   156 symmetry adapted basis functions of A"  symmetry.
   460 basis functions,   684 primitive gaussians,   540 cartesian basis functions
    29 alpha electrons       29 beta electrons
       nuclear repulsion energy       359.1430581603 Hartrees.
 IExCor=    0 DFT=F Ex=HF Corr=None ExCW=0 ScaHFX=  1.000000
 ScaDFX=  1.000000  1.000000  1.000000  1.000000 ScalE2=  1.000000  1.000000
 IRadAn=      0 IRanWt=     -1 IRanGd=            0 ICorTp=0 IEmpDi=  4
 NAtoms=   12 NActive=   12 NUniq=   12 SFac= 1.00D+00 NAtFMM=   60 NAOKFM=F Big=F
 Integral buffers will be    131072 words long.
 Raffenetti 1 integral format.
 Two-electron integral symmetry is turned on.
 Leave Link  301 at Sat Oct 31 00:48:20 2015, MaxMem=    33554432 cpu:         0.5
 (Enter /group/hpc-share/gaussian/2009D/g09/l302.exe)
 NPDir=0 NMtPBC=     1 NCelOv=     1 NCel=       1 NClECP=     1 NCelD=      1
         NCelK=      1 NCelE2=     1 NClLst=     1 CellRange=     0.0.
 One-electron integrals computed using PRISM.
 PrsmSu:  requested number of processors reduced to:   4 ShMem   1 Linda.
 NBasis=   460 RedAO= T EigKep=  6.19D-06  NBF=   304   156
 NBsUse=   460 1.00D-06 EigRej= -1.00D+00 NBFU=   304   156
 Leave Link  302 at Sat Oct 31 00:48:20 2015, MaxMem=    33554432 cpu:         3.3
 (Enter /group/hpc-share/gaussian/2009D/g09/l303.exe)
 DipDrv:  MaxL=1.
 Leave Link  303 at Sat Oct 31 00:48:21 2015, MaxMem=    33554432 cpu:         0.8
 (Enter /group/hpc-share/gaussian/2009D/g09/l401.exe)
 Initial guess from the checkpoint file:  "uracil.chk"
 B after Tr=     0.000000    0.000000    0.000000
         Rot=    0.862194    0.000000    0.000000    0.506578 Ang=  60.87 deg.
 Guess basis will be translated and rotated to current coordinates.
 JPrj=2 DoOrth=T DoCkMO=T.
 Initial guess orbital symmetries:
       Occupied  (A') (A') (A') (A') (A') (A') (A') (A') (A') (A')
                 (A') (A') (A') (A') (A') (A') (A') (A') (A") (A')
                 (A') (A') (A") (A') (A") (A') (A") (A') (A")
       Virtual   (A') (A') (A') (A') (A') (A') (A') (A') (A') (A')
                 (A') (A') (A') (A') (A') (A') (A') (A') (A') (A')
                 (A') (A') (A') (A') (A') (A') (A') (A') (A') (A')
                 (A') (A') (A') (A') (A') (A') (A') (A') (A') (A')
                 (A') (A') (A') (A') (A') (A') (A') (A') (A') (A')
                 (A') (A') (A') (A') (A') (A') (A') (A') (A') (A')
                 (A') (A') (A') (A') (A') (A') (A') (A') (A') (A')
                 (A') (A') (A') (A') (A') (A') (A') (A') (A') (A')
                 (A') (A') (A') (A') (A') (A') (A') (A') (A') (A')
                 (A') (A') (A') (A') (A') (A') (A') (A') (A') (A')
                 (A') (A') (A') (A') (A') (A') (A') (A') (A') (A')
                 (A') (A') (A') (A') (A') (A') (A') (A') (A') (A')
                 (A') (A') (A') (A') (A') (A') (A') (A') (A') (A')
                 (A') (A') (A') (A') (A') (A') (A') (A') (A') (A')
                 (A') (A') (A') (A') (A') (A') (A') (A') (A') (A')
                 (A') (A') (A') (A') (A') (A') (A') (A') (A') (A')
                 (A') (A') (A') (A') (A') (A') (A') (A') (A') (A')
                 (A') (A') (A') (A') (A') (A') (A') (A') (A') (A')
                 (A') (A') (A') (A') (A') (A') (A') (A') (A') (A')
                 (A') (A') (A') (A') (A') (A') (A') (A') (A') (A')
                 (A') (A') (A') (A') (A') (A') (A') (A') (A') (A')
                 (A') (A') (A') (A') (A') (A') (A') (A') (A') (A')
                 (A') (A') (A') (A') (A') (A') (A') (A') (A') (A')
                 (A') (A') (A') (A') (A') (A') (A') (A') (A') (A')
                 (A') (A') (A') (A') (A') (A') (A') (A') (A') (A')
                 (A') (A') (A') (A') (A') (A') (A') (A') (A') (A')
                 (A') (A') (A') (A') (A') (A') (A') (A') (A') (A')
                 (A') (A') (A') (A') (A') (A') (A') (A') (A') (A')
                 (A") (A") (A") (A") (A") (A") (A") (A") (A") (A")
                 (A") (A") (A") (A") (A") (A") (A") (A") (A") (A")
                 (A") (A") (A") (A") (A") (A") (A") (A") (A") (A")
                 (A") (A") (A") (A") (A") (A") (A") (A") (A") (A")
                 (A") (A") (A") (A") (A") (A") (A") (A") (A") (A")
                 (A") (A") (A") (A") (A") (A") (A") (A") (A") (A")
                 (A") (A") (A") (A") (A") (A") (A") (A") (A") (A")
                 (A") (A") (A") (A") (A") (A") (A") (A") (A") (A")
                 (A") (A") (A") (A") (A") (A") (A") (A") (A") (A")
                 (A") (A") (A") (A") (A") (A") (A") (A") (A") (A")
                 (A") (A") (A") (A") (A") (A") (A") (A") (A") (A")
                 (A") (A") (A") (A") (A") (A") (A") (A") (A") (A")
                 (A") (A") (A") (A") (A") (A") (A") (A") (A") (A")
                 (A") (A") (A") (A") (A") (A") (A") (A") (A") (A")
                 (A") (A") (A") (A") (A") (A") (A") (A") (A") (A")
                 (A")
 The electronic state of the initial guess is 1-A'.
 Generating alternative initial guess.
 ExpMin= 2.53D-02 ExpMax= 1.53D+04 ExpMxC= 5.22D+02 IAcc=3 IRadAn=         5 AccDes= 0.00D+00
 Harris functional with IExCor=  205 and IRadAn=       5 diagonalized for initial guess.
 HarFok:  IExCor=  205 AccDes= 0.00D+00 IRadAn=         5 IDoV= 1 UseB2=F ITyADJ=14
 ICtDFT=  3500011 ScaDFX=  1.000000  1.000000  1.000000  1.000000
 FoFCou: FMM=F IPFlag=           0 FMFlag=      100000 FMFlg1=           0
         NFxFlg=           0 DoJE=T BraDBF=F KetDBF=T FulRan=T
         wScrn=  0.000000 ICntrl=     500 IOpCl=  0 I1Cent=   200000004 NGrid=           0
         NMat0=    1 NMatS0=      1 NMatT0=    0 NMatD0=    1 NMtDS0=    0 NMtDT0=    0
 Petite list used in FoFCou.
 Harris En= -412.958433510481    
 Leave Link  401 at Sat Oct 31 00:48:23 2015, MaxMem=    33554432 cpu:        16.5
 (Enter /group/hpc-share/gaussian/2009D/g09/l502.exe)
 Closed shell SCF:
 Using DIIS extrapolation, IDIIS=  1040.
 Integral symmetry usage will be decided dynamically.
 IVT=      901694 IEndB=      901694 NGot=    33554432 MDV=    32961519
 LenX=    32961519 LenY=    32669379
 Requested convergence on RMS density matrix=1.00D-08 within 128 cycles.
 Requested convergence on MAX density matrix=1.00D-06.
 Requested convergence on             energy=1.00D-06.
 No special actions if energy rises.
 Fock matrices will be formed incrementally for  20 cycles.

 Cycle   1  Pass 0  IDiag  1:
 FoFJK:  IHMeth= 1 ICntrl=       0 DoSepK=F KAlg= 0 I1Cent=   0 FoldK=F
 IRaf= 980000000 NMat=   1 IRICut=       1 DoRegI=T DoRafI=F ISym2E= 1.
 FoFCou: FMM=F IPFlag=           0 FMFlag=      100000 FMFlg1=           0
         NFxFlg=           0 DoJE=F BraDBF=F KetDBF=F FulRan=T
         wScrn=  0.000000 ICntrl=       0 IOpCl=  0 I1Cent=           0 NGrid=           0
         NMat0=    1 NMatS0=      1 NMatT0=    0 NMatD0=    1 NMtDS0=    0 NMtDT0=    0
 Petite list used in FoFCou.
 E= -412.597016519882    
 DIIS: error= 4.92D-03 at cycle   1 NSaved=   1.
 NSaved= 1 IEnMin= 1 EnMin= -412.597016519882     IErMin= 1 ErrMin= 4.92D-03
 ErrMax= 4.92D-03  0.00D+00 EMaxC= 1.00D-01 BMatC= 1.44D-02 BMatP= 1.44D-02
 IDIUse=3 WtCom= 9.51D-01 WtEn= 4.92D-02
 Coeff-Com:  0.100D+01
 Coeff-En:   0.100D+01
 Coeff:      0.100D+01
 Gap=     0.653 Goal=   None    Shift=    0.000
 GapD=    0.653 DampG=2.000 DampE=1.000 DampFc=2.0000 IDamp=-1.
 RMSDP=9.00D-04 MaxDP=3.96D-02              OVMax= 1.64D-02

 Cycle   2  Pass 0  IDiag  1:
 RMSU=  8.97D-04    CP:  9.92D-01
 E= -412.607567918976     Delta-E=       -0.010551399094 Rises=F Damp=F
 DIIS: error= 1.25D-03 at cycle   2 NSaved=   2.
 NSaved= 2 IEnMin= 2 EnMin= -412.607567918976     IErMin= 2 ErrMin= 1.25D-03
 ErrMax= 1.25D-03  0.00D+00 EMaxC= 1.00D-01 BMatC= 7.12D-04 BMatP= 1.44D-02
 IDIUse=3 WtCom= 9.87D-01 WtEn= 1.25D-02
 Coeff-Com: -0.146D-02 0.100D+01
 Coeff-En:   0.000D+00 0.100D+01
 Coeff:     -0.144D-02 0.100D+01
 Gap=     0.374 Goal=   None    Shift=    0.000
 RMSDP=1.22D-04 MaxDP=6.31D-03 DE=-1.06D-02 OVMax= 8.36D-03

 Cycle   3  Pass 0  IDiag  1:
 RMSU=  9.53D-05    CP:  9.93D-01  1.08D+00
 E= -412.608345390556     Delta-E=       -0.000777471580 Rises=F Damp=F
 DIIS: error= 5.70D-04 at cycle   3 NSaved=   3.
 NSaved= 3 IEnMin= 3 EnMin= -412.608345390556     IErMin= 3 ErrMin= 5.70D-04
 ErrMax= 5.70D-04  0.00D+00 EMaxC= 1.00D-01 BMatC= 1.31D-04 BMatP= 7.12D-04
 IDIUse=3 WtCom= 9.94D-01 WtEn= 5.70D-03
 Coeff-Com: -0.500D-01 0.204D+00 0.846D+00
 Coeff-En:   0.000D+00 0.000D+00 0.100D+01
 Coeff:     -0.498D-01 0.203D+00 0.847D+00
 Gap=     0.374 Goal=   None    Shift=    0.000
 RMSDP=2.79D-05 MaxDP=9.20D-04 DE=-7.77D-04 OVMax= 3.27D-03

 Cycle   4  Pass 0  IDiag  1:
 RMSU=  2.39D-05    CP:  9.94D-01  1.09D+00  1.11D+00
 E= -412.608488088256     Delta-E=       -0.000142697700 Rises=F Damp=F
 DIIS: error= 2.09D-04 at cycle   4 NSaved=   4.
 NSaved= 4 IEnMin= 4 EnMin= -412.608488088256     IErMin= 4 ErrMin= 2.09D-04
 ErrMax= 2.09D-04  0.00D+00 EMaxC= 1.00D-01 BMatC= 1.26D-05 BMatP= 1.31D-04
 IDIUse=3 WtCom= 9.98D-01 WtEn= 2.09D-03
 Coeff-Com: -0.304D-02-0.669D-01 0.991D-01 0.971D+00
 Coeff-En:   0.000D+00 0.000D+00 0.000D+00 0.100D+01
 Coeff:     -0.304D-02-0.667D-01 0.989D-01 0.971D+00
 Gap=     0.374 Goal=   None    Shift=    0.000
 RMSDP=1.23D-05 MaxDP=4.88D-04 DE=-1.43D-04 OVMax= 1.72D-03

 Cycle   5  Pass 0  IDiag  1:
 RMSU=  7.54D-06    CP:  9.94D-01  1.10D+00  1.20D+00  1.11D+00
 E= -412.608509319533     Delta-E=       -0.000021231277 Rises=F Damp=F
 DIIS: error= 6.88D-05 at cycle   5 NSaved=   5.
 NSaved= 5 IEnMin= 5 EnMin= -412.608509319533     IErMin= 5 ErrMin= 6.88D-05
 ErrMax= 6.88D-05  0.00D+00 EMaxC= 1.00D-01 BMatC= 2.51D-06 BMatP= 1.26D-05
 IDIUse=1 WtCom= 1.00D+00 WtEn= 0.00D+00
 Coeff-Com:  0.566D-02-0.430D-01-0.870D-01 0.254D+00 0.870D+00
 Coeff:      0.566D-02-0.430D-01-0.870D-01 0.254D+00 0.870D+00
 Gap=     0.374 Goal=   None    Shift=    0.000
 RMSDP=4.42D-06 MaxDP=1.55D-04 DE=-2.12D-05 OVMax= 7.08D-04

[...]
     7  H    2.078951   1.080464   2.134284   3.426219   3.759363
     8  H    3.359663   2.121626   1.077063   2.184404   3.372622
     9  O    4.013163   3.567069   2.385523   1.220742   2.278202
    10  H    3.213588   3.694118   3.303396   2.060128   1.011923
    11  O    2.288188   3.542614   4.067034   3.611892   2.294742
    12  H    1.007158   2.080157   3.289227   3.801922   3.206012
                    6          7          8          9         10
     6  C    0.000000
     7  H    3.361733   0.000000
     8  H    3.926785   2.494226   0.000000
     9  O    3.581822   4.500425   2.690238   0.000000
    10  H    2.030900   4.770928   4.209553   2.470154   0.000000
    11  O    1.217381   4.366505   5.144077   4.572240   2.498029
    12  H    2.028755   2.362176   4.191523   5.019403   4.030861
                   11         12
    11  O    0.000000
    12  H    2.477790   0.000000
 Stoichiometry    C4H4N2O2
 Framework group  CS[SG(C4H4N2O2)]
 Deg. of freedom    21
 Full point group                 CS      NOp   2
 RotChk:  IX=1 Diff= 3.93D-16
 Largest Abelian subgroup         CS      NOp   2
 Largest concise Abelian subgroup C1      NOp   1
                         Standard orientation:                         
 ---------------------------------------------------------------------
 Center     Atomic      Atomic             Coordinates (Angstroms)
 Number     Number       Type             X           Y           Z
 ---------------------------------------------------------------------
      1          7           0       -1.137597    1.023389    0.000000
      2          6           0        0.052873    1.702481    0.000000
      3          6           0        1.239776    1.061509    0.000000
      4          6           0        1.273563   -0.390194    0.000000
      5          7           0        0.000000   -0.979197    0.000000
      6          6           0       -1.231167   -0.358130    0.000000
      7          1           0       -0.025803    2.780077    0.000000
      8          1           0        2.172064    1.600865    0.000000
      9          8           0        2.275632   -1.087380    0.000000
     10          1           0       -0.023368   -1.990850    0.000000
     11          8           0       -2.294566   -0.950751    0.000000
     12          1           0       -2.018509    1.511613    0.000000
 ---------------------------------------------------------------------
 Rotational constants (GHZ):      3.9022758      2.0189496      1.3305520
 Leave Link  202 at Sat Oct 31 07:32:55 2015, MaxMem=    33554432 cpu:         0.0
 (Enter /group/hpc-share/gaussian/2009D/g09/l601.exe)
 Copying SCF densities to generalized density rwf, IOpCl= 0 IROHF=0.

 **********************************************************************

            Population analysis using the SCF density.

 **********************************************************************

 Orbital symmetries:
       Occupied  (A') (A') (A') (A') (A') (A') (A') (A') (A') (A')
                 (A') (A') (A') (A') (A') (A') (A') (A') (A') (A")
                 (A') (A') (A') (A") (A") (A') (A') (A") (A")
       Virtual   (A') (A') (A') (A') (A") (A") (A') (A') (A') (A")
                 (A') (A") (A') (A') (A') (A") (A') (A') (A') (A")
                 (A') (A") (A') (A") (A') (A") (A') (A') (A') (A')
                 (A') (A") (A') (A') (A") (A') (A") (A') (A') (A')
                 (A') (A") (A') (A') (A') (A') (A") (A") (A') (A")
                 (A') (A') (A') (A") (A') (A') (A") (A') (A") (A')
                 (A") (A') (A") (A') (A') (A') (A') (A") (A') (A')
                 (A') (A') (A') (A') (A') (A") (A') (A") (A') (A")
                 (A') (A') (A") (A') (A") (A') (A') (A') (A') (A")
                 (A") (A') (A') (A") (A') (A') (A') (A') (A") (A')
                 (A") (A') (A') (A") (A") (A') (A') (A") (A') (A")
                 (A") (A') (A') (A") (A') (A') (A") (A') (A') (A")
                 (A') (A') (A") (A') (A') (A') (A") (A") (A') (A')
                 (A") (A') (A') (A') (A") (A') (A') (A") (A') (A')
                 (A") (A') (A") (A') (A') (A') (A') (A") (A") (A")
                 (A') (A') (A') (A") (A') (A') (A") (A") (A') (A')
                 (A") (A") (A') (A') (A") (A') (A') (A") (A') (A')
                 (A') (A") (A') (A') (A") (A') (A") (A') (A') (A")
                 (A") (A') (A") (A') (A') (A') (A') (A") (A') (A')
                 (A") (A') (A') (A") (A') (A") (A') (A") (A') (A')
                 (A") (A') (A') (A") (A") (A') (A') (A") (A') (A')
                 (A') (A') (A') (A') (A") (A") (A') (A") (A") (A')
                 (A') (A') (A') (A') (A") (A") (A') (A") (A') (A')
                 (A") (A") (A') (A") (A') (A') (A") (A") (A') (A')
                 (A") (A') (A') (A') (A") (A') (A') (A') (A") (A')
                 (A') (A") (A') (A") (A') (A') (A') (A") (A") (A')
                 (A') (A') (A") (A") (A') (A') (A") (A') (A') (A")
                 (A') (A") (A') (A') (A") (A') (A") (A') (A') (A")
                 (A') (A') (A") (A') (A") (A') (A") (A') (A") (A')
                 (A') (A") (A') (A') (A") (A') (A") (A') (A") (A')
                 (A') (A') (A") (A') (A") (A") (A') (A') (A') (A")
                 (A') (A") (A") (A') (A') (A") (A') (A") (A') (A')
                 (A") (A") (A') (A") (A') (A') (A") (A") (A') (A')
                 (A') (A') (A') (A') (A") (A") (A') (A') (A') (A")
                 (A') (A") (A') (A') (A') (A") (A') (A") (A') (A")
                 (A') (A') (A") (A') (A") (A') (A') (A') (A') (A")
                 (A') (A") (A') (A") (A") (A') (A') (A") (A') (A")
                 (A') (A') (A") (A') (A") (A') (A") (A') (A') (A")
                 (A') (A") (A') (A') (A') (A') (A') (A') (A') (A")
                 (A") (A') (A') (A') (A') (A') (A') (A') (A") (A')
                 (A') (A") (A') (A") (A') (A") (A') (A') (A") (A")
                 (A') (A') (A") (A') (A") (A') (A') (A') (A') (A')
                 (A') (A') (A') (A') (A') (A') (A') (A') (A') (A')
                 (A')
 The electronic state is 1-A'.
 Alpha  occ. eigenvalues --  -20.54774 -20.54247 -15.64577 -15.62878 -11.41981
 Alpha  occ. eigenvalues --  -11.38199 -11.34212 -11.25684  -1.43608  -1.39786
 Alpha  occ. eigenvalues --   -1.31373  -1.24647  -1.08941  -0.93435  -0.90212
 Alpha  occ. eigenvalues --   -0.80782  -0.76588  -0.71542  -0.67808  -0.66945
 Alpha  occ. eigenvalues --   -0.65330  -0.61547  -0.60247  -0.57102  -0.52651
 Alpha  occ. eigenvalues --   -0.48428  -0.45013  -0.43753  -0.37002
 Alpha virt. eigenvalues --    0.01421   0.03366   0.04090   0.05080   0.05707
 Alpha virt. eigenvalues --    0.07725   0.07977   0.08705   0.09336   0.09989
 Alpha virt. eigenvalues --    0.10632   0.10737   0.11547   0.12226   0.12405
 Alpha virt. eigenvalues --    0.13436   0.13874   0.14570   0.15684   0.15951
 Alpha virt. eigenvalues --    0.16325   0.16420   0.17572   0.20046   0.21055
 Alpha virt. eigenvalues --    0.21463   0.21944   0.22891   0.24155   0.24869
 Alpha virt. eigenvalues --    0.26184   0.26318   0.26798   0.26931   0.27187
 Alpha virt. eigenvalues --    0.27701   0.28545   0.29371   0.29576   0.31028
 Alpha virt. eigenvalues --    0.31369   0.32911   0.33260   0.34501   0.35032
 Alpha virt. eigenvalues --    0.35316   0.35822   0.36533   0.37404   0.37606
 Alpha virt. eigenvalues --    0.39274   0.39740   0.41543   0.41565   0.42244
 Alpha virt. eigenvalues --    0.43289   0.43474   0.45010   0.45422   0.45918
 Alpha virt. eigenvalues --    0.46334   0.46864   0.47143   0.48175   0.49527
 Alpha virt. eigenvalues --    0.50016   0.51229   0.52149   0.52188   0.52458
 Alpha virt. eigenvalues --    0.53898   0.56234   0.57291   0.59677   0.59805
 Alpha virt. eigenvalues --    0.59914   0.61211   0.62030   0.62811   0.63740
 Alpha virt. eigenvalues --    0.64399   0.66205   0.67109   0.67951   0.68267
 Alpha virt. eigenvalues --    0.69467   0.71133   0.71429   0.73481   0.73594
 Alpha virt. eigenvalues --    0.74724   0.75226   0.75683   0.77243   0.77476
 Alpha virt. eigenvalues --    0.80305   0.80941   0.82756   0.84196   0.84622
 Alpha virt. eigenvalues --    0.84819   0.87037   0.87698   0.88096   0.89230
 Alpha virt. eigenvalues --    0.89317   0.91017   0.91703   0.91777   0.92974
 Alpha virt. eigenvalues --    0.93625   0.93677   0.94851   0.95515   0.95929
 Alpha virt. eigenvalues --    0.97364   0.98048   0.98698   1.00130   1.00874
 Alpha virt. eigenvalues --    1.01683   1.03536   1.05156   1.05288   1.07371
 Alpha virt. eigenvalues --    1.08533   1.08991   1.10107   1.11068   1.11923
 Alpha virt. eigenvalues --    1.13009   1.13059   1.13843   1.14665   1.15408
 Alpha virt. eigenvalues --    1.16806   1.17703   1.18128   1.18380   1.19129
 Alpha virt. eigenvalues --    1.21153   1.21455   1.23029   1.23049   1.24170
 Alpha virt. eigenvalues --    1.26244   1.27977   1.28950   1.30173   1.32485
 Alpha virt. eigenvalues --    1.33035   1.34681   1.36484   1.36771   1.37448
 Alpha virt. eigenvalues --    1.39125   1.40474   1.41287   1.41851   1.43453
 Alpha virt. eigenvalues --    1.43580   1.45886   1.46459   1.48164   1.48797
 Alpha virt. eigenvalues --    1.49426   1.50951   1.51497   1.52652   1.55240
 Alpha virt. eigenvalues --    1.55694   1.57485   1.57809   1.59760   1.62129
 Alpha virt. eigenvalues --    1.63623   1.64118   1.65183   1.66872   1.68665
 Alpha virt. eigenvalues --    1.70419   1.70511   1.73361   1.73487   1.76031
 Alpha virt. eigenvalues --    1.79704   1.82424   1.83566   1.86077   1.86516
 Alpha virt. eigenvalues --    1.87583   1.87702   1.91826   1.92111   1.93013
 Alpha virt. eigenvalues --    1.93090   1.98443   2.00693   2.00879   2.02303
 Alpha virt. eigenvalues --    2.09815   2.10308   2.11572   2.11972   2.14133
 Alpha virt. eigenvalues --    2.14238   2.15178   2.16118   2.18865   2.19910
 Alpha virt. eigenvalues --    2.21115   2.22666   2.26178   2.27497   2.28091
 Alpha virt. eigenvalues --    2.29987   2.32363   2.35068   2.36278   2.39909
 Alpha virt. eigenvalues --    2.40453   2.40781   2.43274   2.45255   2.46982
 Alpha virt. eigenvalues --    2.47996   2.48713   2.50226   2.51006   2.53206
 Alpha virt. eigenvalues --    2.53766   2.56427   2.57205   2.57781   2.58548
 Alpha virt. eigenvalues --    2.60409   2.60971   2.63833   2.66549   2.68260
 Alpha virt. eigenvalues --    2.69842   2.70251   2.75864   2.76614   2.76621
 Alpha virt. eigenvalues --    2.77594   2.82295   2.82540   2.84494   2.86991
 Alpha virt. eigenvalues --    2.91201   2.92908   2.96602   2.97196   2.99633
 Alpha virt. eigenvalues --    3.00696   3.01473   3.04324   3.12153   3.12159
 Alpha virt. eigenvalues --    3.17358   3.19096   3.19834   3.23913   3.25139
 Alpha virt. eigenvalues --    3.26078   3.28212   3.29259   3.33651   3.36033
 Alpha virt. eigenvalues --    3.41969   3.42566   3.43603   3.46712   3.47506
 Alpha virt. eigenvalues --    3.51033   3.52821   3.53508   3.58042   3.59968
 Alpha virt. eigenvalues --    3.61437   3.64058   3.64199   3.67884   3.68957
 Alpha virt. eigenvalues --    3.71407   3.74365   3.75181   3.75927   3.77108
 Alpha virt. eigenvalues --    3.80710   3.82397   3.84643   3.88353   3.88824
 Alpha virt. eigenvalues --    3.91842   3.94355   3.94443   3.98131   3.99442
 Alpha virt. eigenvalues --    4.05133   4.06276   4.07465   4.11317   4.12117
 Alpha virt. eigenvalues --    4.14674   4.16503   4.19518   4.20422   4.21922
 Alpha virt. eigenvalues --    4.24443   4.25185   4.27595   4.27952   4.30808
 Alpha virt. eigenvalues --    4.33331   4.33864   4.36007   4.37377   4.41795
 Alpha virt. eigenvalues --    4.41966   4.43077   4.43836   4.45946   4.50036
 Alpha virt. eigenvalues --    4.55874   4.60285   4.62239   4.63157   4.66427
 Alpha virt. eigenvalues --    4.67949   4.69337   4.73681   4.75459   4.75821
 Alpha virt. eigenvalues --    4.81238   4.84938   4.86134   4.88932   4.91142
 Alpha virt. eigenvalues --    4.92047   4.94989   5.00586   5.02203   5.03779
 Alpha virt. eigenvalues --    5.07263   5.08498   5.10558   5.10880   5.12005
 Alpha virt. eigenvalues --    5.14219   5.19897   5.23636   5.25845   5.31706
 Alpha virt. eigenvalues --    5.35616   5.40479   5.41190   5.47124   5.48451
 Alpha virt. eigenvalues --    5.49211   5.51289   5.51925   5.54645   5.59086
 Alpha virt. eigenvalues --    5.61060   5.65754   5.69236   5.75535   5.77107
 Alpha virt. eigenvalues --    5.77576   5.79638   5.80587   5.84980   5.90049
 Alpha virt. eigenvalues --    5.97699   5.99913   6.01373   6.03060   6.07696
 Alpha virt. eigenvalues --    6.09709   6.16757   6.17530   6.25037   6.25928
 Alpha virt. eigenvalues --    6.46072   6.54389   6.57320   6.62061   6.65018
 Alpha virt. eigenvalues --    6.66070   6.70117   6.72926   6.73847   6.79964
 Alpha virt. eigenvalues --    6.83197   6.84091   6.85564   6.92950   6.94564
 Alpha virt. eigenvalues --    6.98244   6.99537   7.10876   7.12926   7.17715
 Alpha virt. eigenvalues --    7.24691   7.33791   7.36184   7.36221   7.37969
 Alpha virt. eigenvalues --    7.38885   7.45280   7.62786   7.63843   7.67292
 Alpha virt. eigenvalues --    7.70826   7.79921   7.84884   7.89495   7.93004
 Alpha virt. eigenvalues --    7.97197   8.01771   8.10369  15.95314  16.02027
 Alpha virt. eigenvalues --   16.33354  16.92326  18.23488  19.38327  19.69852
 Alpha virt. eigenvalues --   20.46646
          Condensed to atoms (all electrons):
               1          2          3          4          5          6
     1  N    6.347842   0.313797  -0.146369  -0.046236  -0.105943   0.386839
     2  C    0.313797   6.525269  -0.195624   0.072190  -0.024500  -0.376404
     3  C   -0.146369  -0.195624   6.677450  -0.242294  -0.098043   0.177287
     4  C   -0.046236   0.072190  -0.242294   5.592259   0.382367  -0.379603
     5  N   -0.105943  -0.024500  -0.098043   0.382367   6.264685   0.252731
     6  C    0.386839  -0.376404   0.177287  -0.379603   0.252731   5.526311
     7  H   -0.076478   0.148835  -0.159928   0.012738   0.002821  -0.000796
     8  H    0.013854  -0.062731   0.349088  -0.133787   0.004795  -0.011866
     9  O    0.001005   0.005095  -0.141029   0.374245  -0.184904   0.022293
    10  H    0.006599   0.011328  -0.006656  -0.079028   0.428099  -0.135484
    11  O   -0.128277  -0.022874   0.006791  -0.008261  -0.137206   0.535354
    12  H    0.431933  -0.086012   0.017075  -0.003354   0.002146  -0.126994
               7          8          9         10         11         12
     1  N   -0.076478   0.013854   0.001005   0.006599  -0.128277   0.431933
     2  C    0.148835  -0.062731   0.005095   0.011328  -0.022874  -0.086012
     3  C   -0.159928   0.349088  -0.141029  -0.006656   0.006791   0.017075
     4  C    0.012738  -0.133787   0.374245  -0.079028  -0.008261  -0.003354
     5  N    0.002821   0.004795  -0.184904   0.428099  -0.137206   0.002146
     6  C   -0.000796  -0.011866   0.022293  -0.135484   0.535354  -0.126994
     7  H    0.432945  -0.096886  -0.002334   0.000259   0.000115   0.010981
     8  H   -0.096886   0.604970   0.034512   0.002242  -0.000145  -0.002237
     9  O   -0.002334   0.034512   8.753599  -0.041896  -0.002621   0.000948
    10  H    0.000259   0.002242  -0.041896   0.646318  -0.005014  -0.000893
    11  O    0.000115  -0.000145  -0.002621  -0.005014   8.526627  -0.011241
    12  H    0.010981  -0.002237   0.000948  -0.000893  -0.011241   0.652895
 Mulliken charges:
               1
     1  N    0.001433
     2  C   -0.308366
     3  C   -0.237749
     4  C    0.458762
     5  N    0.212950
     6  C    0.130332
     7  H    0.727727
     8  H    0.298191
     9  O   -0.818912
    10  H    0.174126
    11  O   -0.753248
    12  H    0.114754
 Sum of Mulliken charges =   0.00000
 Mulliken charges with hydrogens summed into heavy atoms:
               1
     1  N    0.116186
     2  C    0.419361
     3  C    0.060442
     4  C    0.458762
     5  N    0.387076
     6  C    0.130332
     9  O   -0.818912
    11  O   -0.753248
 Electronic spatial extent (au):  <R**2>=            831.1444
 Charge=              0.0000 electrons
 Dipole moment (field-independent basis, Debye):
    X=             -1.1911    Y=              4.8947    Z=              0.0000  Tot=              5.0376
 Quadrupole moment (field-independent basis, Debye-Ang):
   XX=            -60.2587   YY=            -38.0054   ZZ=            -46.6478
   XY=             -1.7290   XZ=              0.0000   YZ=              0.0000
 Traceless Quadrupole moment (field-independent basis, Debye-Ang):
   XX=            -11.9547   YY=             10.2986   ZZ=              1.6561
   XY=             -1.7290   XZ=              0.0000   YZ=              0.0000
 Octapole moment (field-independent basis, Debye-Ang**2):
  XXX=             -7.4288  YYY=              9.1456  ZZZ=              0.0000  XYY=             -7.3518
  XXY=             33.5823  XXZ=              0.0000  XZZ=             -2.0864  YZZ=             -4.2609
  YYZ=              0.0000  XYZ=              0.0000
 Hexadecapole moment (field-independent basis, Debye-Ang**3):
 XXXX=           -722.3523 YYYY=           -303.4374 ZZZZ=            -46.0320 XXXY=             -5.8418
 XXXZ=              0.0000 YYYX=             -5.6495 YYYZ=              0.0000 ZZZX=              0.0000
 ZZZY=              0.0000 XXYY=           -175.4546 XXZZ=           -113.5030 YYZZ=            -74.9062
 XXYZ=              0.0000 YYXZ=              0.0000 ZZXY=             -1.7045
 N-N= 3.568954585386D+02 E-N=-1.682052914018D+03  KE= 4.118790114182D+02
 Symmetry A'   KE= 3.960156173629D+02
 Symmetry A"   KE= 1.586339405530D+01
 No NMR shielding tensors so no spin-rotation constants.
 Leave Link  601 at Sat Oct 31 07:32:56 2015, MaxMem=    33554432 cpu:         7.4
 (Enter /group/hpc-share/gaussian/2009D/g09/l9999.exe)
 B after Tr=     0.006402    0.000000   -0.050158
         Rot=    0.999966    0.000000    0.008244    0.000000 Ang=   0.94 deg.
 Final structure in terms of initial Z-matrix:
 N
 C,1,cn2
 C,2,cc3,1,ccn3
 C,3,cc4,2,ccc4,1,dih4,0
 N,4,nc5,3,ncc5,2,dih5,0
 C,5,cn6,4,cnc6,3,dih6,0
 H,2,hc7,1,hcn7,3,dih7,0
 H,3,hc8,2,hcc8,4,dih8,0
 O,4,oc9,3,occ9,5,dih9,0
 H,5,hn10,4,hnc10,3,dih10,0
 O,6,oc11,5,ocn11,4,dih11,0
 H,1,hn12,2,hnc12,3,dih12,0
      Variables:
 cn2=1.37054213
 cc3=1.34891994
 ccn3=121.92710262
 cc4=1.45209614
 ccc4=119.70398045
 dih4=0.
 nc5=1.40317028
 ncc5=113.48654526
 dih5=0.
 cn6=1.37894778
 cnc6=128.41137318
 dih6=0.
 hc7=1.08046413
 hcn7=115.52637722
 dih7=180.
 hc8=1.07706326
 hcc8=121.57863942
 dih8=180.
 oc9=1.22074164
 occ9=126.16135873
 dih9=180.
 hn10=1.01192296
 hnc10=116.14302243
 dih10=180.
 oc11=1.21738062
 ocn11=124.10072041
 dih11=180.
 hn12=1.00715827
 hnc12=121.30147606
 dih12=180.
 1\1\GINC-HPC-CN68\FOpt\RMP2-FC\Aug-CC-pVTZ\C4H4N2O2\6498IVANOVM\31-Oct
 -2015\0\\#P mp2/aug-cc-pvtz opt\\uracil\\0,1\N,0.0123797602,0.,0.08275
 80649\C,0.0203666806,0.,1.4532769262\C,1.169361931,0.,2.1599557229\C,2
 .4430282479,0.,1.4625624886\N,2.3154585392,0.,0.0652032586\C,1.1615397
 411,0.,-0.6897592492\H,-0.9519002274,0.,1.9245515818\H,1.1690881045,0.
 ,3.2370189447\O,3.5481697663,0.,1.981091548\H,3.1795605682,0.,-0.46140
 45304\O,1.1422986569,0.,-1.9069878069\H,-0.851216759,0.,-0.4354782141\
 \Version=EM64L-G09RevD.01\State=1-A'\HF=-412.6243885\MP2=-414.1254766\
 RMSD=9.503e-09\RMSF=1.031e-04\Dipole=-1.6381116,0.,0.4735275\PG=CS [SG
 (C4H4N2O2)]\\@


 WE SHOULD BE CAREFUL TO GET OUT OF AN EXPERIENCE ONLY THE WISDOM
 THAT IS IN IT -- AND STOP THERE;
 LEST WE BE LIKE THE CAT THAT SITS DOWN ON A HOT STOVE-LID.
 SHE WILL NEVER SIT DOWN ON A HOT STOVE LID AGAIN;
 BUT ALSO SHE WILL NEVER SIT DOWN ON A COLD ONE ANY MORE.

                                                     -- MARK TWAIN
 Job cpu time:       1 days  9 hours 55 minutes 53.9 seconds.
 File lengths (MBytes):  RWF=  43697 Int=      0 D2E=      0 Chk=     21 Scr=      1
 Normal termination of Gaussian 09 at Sat Oct 31 07:33:03 2015.
