 Entering Gaussian System, Link 0=g09
 Input=water.com
 Output=water.log
 AtFile(1): water.zmat
             o
             h   1 ho2
             h    1 ho3         2 hoh3
            
            ho2         0.947000
            ho3         0.950000
            hoh3        109.471
            
            
 Initial command:
 /group/hpc-share/gaussian/2009D/g09/l1.exe "/scratch/gaussian/g_water.com-835889.hn1.marqnet.mu.edu/Gau-23556.inp" -scrdir="/scratch/gaussian/g_water.com-835889.hn1.marqnet.mu.edu/"
 Entering Link 1 = /group/hpc-share/gaussian/2009D/g09/l1.exe PID=     23557.
  
 Copyright (c) 1988,1990,1992,1993,1995,1998,2003,2009,2013,
            Gaussian, Inc.  All Rights Reserved.
  
 This is part of the Gaussian(R) 09 program.  It is based on
 the Gaussian(R) 03 system (copyright 2003, Gaussian, Inc.),
 the Gaussian(R) 98 system (copyright 1998, Gaussian, Inc.),
 the Gaussian(R) 94 system (copyright 1995, Gaussian, Inc.),
 the Gaussian 92(TM) system (copyright 1992, Gaussian, Inc.),
 the Gaussian 90(TM) system (copyright 1990, Gaussian, Inc.),
 the Gaussian 88(TM) system (copyright 1988, Gaussian, Inc.),
 the Gaussian 86(TM) system (copyright 1986, Carnegie Mellon
 University), and the Gaussian 82(TM) system (copyright 1983,
 Carnegie Mellon University). Gaussian is a federally registered
 trademark of Gaussian, Inc.
  
 This software contains proprietary and confidential information,
 including trade secrets, belonging to Gaussian, Inc.
  
 This software is provided under written license and may be
 used, copied, transmitted, or stored only in accord with that
 written license.
  
 The following legend is applicable only to US Government
 contracts under FAR:
  
                    RESTRICTED RIGHTS LEGEND
  
 Use, reproduction and disclosure by the US Government is
 subject to restrictions as set forth in subparagraphs (a)
 and (c) of the Commercial Computer Software - Restricted
 Rights clause in FAR 52.227-19.
  
 Gaussian, Inc.
 340 Quinnipiac St., Bldg. 40, Wallingford CT 06492
  
  
 ---------------------------------------------------------------
 Warning -- This program may not be used in any manner that
 competes with the business of Gaussian, Inc. or will provide
 assistance to any competitor of Gaussian, Inc.  The licensee
 of this program is prohibited from giving any competitor of
 Gaussian, Inc. access to this program.  By using this program,
 the user acknowledges that Gaussian, Inc. is engaged in the
 business of creating and licensing software in the field of
 computational chemistry and represents and warrants to the
 licensee that it is not a competitor of Gaussian, Inc. and that
 it will not use this program in any manner prohibited above.
 ---------------------------------------------------------------
  

 Cite this work as:
 Gaussian 09, Revision D.01,
 M. J. Frisch, G. W. Trucks, H. B. Schlegel, G. E. Scuseria, 
 M. A. Robb, J. R. Cheeseman, G. Scalmani, V. Barone, B. Mennucci, 
 G. A. Petersson, H. Nakatsuji, M. Caricato, X. Li, H. P. Hratchian, 
 A. F. Izmaylov, J. Bloino, G. Zheng, J. L. Sonnenberg, M. Hada, 
 M. Ehara, K. Toyota, R. Fukuda, J. Hasegawa, M. Ishida, T. Nakajima, 
 Y. Honda, O. Kitao, H. Nakai, T. Vreven, J. A. Montgomery, Jr., 
 J. E. Peralta, F. Ogliaro, M. Bearpark, J. J. Heyd, E. Brothers, 
 K. N. Kudin, V. N. Staroverov, T. Keith, R. Kobayashi, J. Normand, 
 K. Raghavachari, A. Rendell, J. C. Burant, S. S. Iyengar, J. Tomasi, 
 M. Cossi, N. Rega, J. M. Millam, M. Klene, J. E. Knox, J. B. Cross, 
 V. Bakken, C. Adamo, J. Jaramillo, R. Gomperts, R. E. Stratmann, 
 O. Yazyev, A. J. Austin, R. Cammi, C. Pomelli, J. W. Ochterski, 
 R. L. Martin, K. Morokuma, V. G. Zakrzewski, G. A. Voth, 
 P. Salvador, J. J. Dannenberg, S. Dapprich, A. D. Daniels, 
 O. Farkas, J. B. Foresman, J. V. Ortiz, J. Cioslowski, 
 and D. J. Fox, Gaussian, Inc., Wallingford CT, 2013.
 
 ******************************************
 Gaussian 09:  EM64L-G09RevD.01 24-Apr-2013
                30-Oct-2015 
 ******************************************
 %nproc=8
 Will use up to    8 processors via shared memory.
 %chk=water.chk
 ----------------------
 #P mp2/aug-cc-pvtz opt
 ----------------------
 1/18=20,19=15,38=1/1,3;
 2/9=110,12=2,17=6,18=5,40=1/2;
 3/5=16,6=1,7=10,11=9,16=1,25=1,30=1,71=1/1,2,3;
 4//1;
 5/5=2,38=5/2;
 8/6=4,10=1/1;
 9/15=2,16=-3/6;
 10/5=1/2;
 6/7=2,8=2,9=2,10=2/1;
 7/12=2/1,2,3,16;
 1/18=20,19=15/3(2);
 2/9=110/2;
 99//99;
 2/9=110/2;
 3/5=16,6=1,7=10,11=9,16=1,25=1,30=1,71=1/1,2,3;
 4/5=5,16=3,69=1/1;
 5/5=2,38=5/2;
 8/6=4,10=1/1;
 9/15=2,16=-3/6;
 10/5=1/2;
 7/12=2/1,2,3,16;
 1/18=20,19=15/3(-8);
 2/9=110/2;
 6/7=2,8=2,9=2,10=2/1;
 99//99;
 Leave Link    1 at Fri Oct 30 23:43:46 2015, MaxMem=           0 cpu:         0.5
 (Enter /group/hpc-share/gaussian/2009D/g09/l101.exe)
 -----
 water
 -----
 Symbolic Z-matrix:
 Charge =  0 Multiplicity = 1
 o
 h                    1    ho2
 h                    1    ho3      2    hoh3
       Variables:
  ho2                   0.947                    
  ho3                   0.95                     
  hoh3                109.471                    
 
     1 tetrahedral angles replaced.
 NAtoms=      3 NQM=        3 NQMF=       0 NMMI=      0 NMMIF=      0
                NMic=       0 NMicF=      0.
                    Isotopes and Nuclear Properties:
 (Nuclear quadrupole moments (NQMom) in fm**2, nuclear magnetic moments (NMagM)
  in nuclear magnetons)

  Atom         1           2           3
 IAtWgt=          16           1           1
 AtmWgt=  15.9949146   1.0078250   1.0078250
 NucSpn=           0           1           1
 AtZEff=   0.0000000   0.0000000   0.0000000
 NQMom=    0.0000000   0.0000000   0.0000000
 NMagM=    0.0000000   2.7928460   2.7928460
 AtZNuc=   8.0000000   1.0000000   1.0000000
 Leave Link  101 at Fri Oct 30 23:43:46 2015, MaxMem=    33554432 cpu:         0.9
 (Enter /group/hpc-share/gaussian/2009D/g09/l103.exe)

 GradGradGradGradGradGradGradGradGradGradGradGradGradGradGradGradGradGrad
 Berny optimization.
 Initialization pass.
                           ----------------------------
                           !    Initial Parameters    !
                           ! (Angstroms and Degrees)  !
 --------------------------                            --------------------------
 ! Name  Definition              Value          Derivative Info.                !
 --------------------------------------------------------------------------------
 ! R1    R(1,2)                  0.947          estimate D2E/DX2                !
 ! R2    R(1,3)                  0.95           estimate D2E/DX2                !
 ! A1    A(2,1,3)              109.4712         estimate D2E/DX2                !
 --------------------------------------------------------------------------------
 Trust Radius=3.00D-01 FncErr=1.00D-07 GrdErr=1.00D-07
 Number of steps in this run=     20 maximum allowed number of steps=    100.
 GradGradGradGradGradGradGradGradGradGradGradGradGradGradGradGradGradGrad

 Leave Link  103 at Fri Oct 30 23:43:46 2015, MaxMem=    33554432 cpu:         0.1
 (Enter /group/hpc-share/gaussian/2009D/g09/l202.exe)
                          Input orientation:                          
 ---------------------------------------------------------------------
 Center     Atomic      Atomic             Coordinates (Angstroms)
 Number     Number       Type             X           Y           Z
 ---------------------------------------------------------------------
      1          8           0        0.000000    0.000000    0.000000
      2          1           0        0.000000    0.000000    0.947000
      3          1           0        0.895669    0.000000   -0.316667
 ---------------------------------------------------------------------
                    Distance matrix (angstroms):
                    1          2          3
     1  O    0.000000
     2  H    0.947000   0.000000
     3  H    0.950000   1.548895   0.000000
 Stoichiometry    H2O
 Framework group  CS[SG(H2O)]
 Deg. of freedom     3
 Full point group                 CS      NOp   2
 Largest Abelian subgroup         CS      NOp   2
 Largest concise Abelian subgroup C1      NOp   1
                         Standard orientation:                         
 ---------------------------------------------------------------------
 Center     Atomic      Atomic             Coordinates (Angstroms)
 Number     Number       Type             X           Y           Z
 ---------------------------------------------------------------------
      1          8           0        0.000000    0.109524    0.000000
      2          1           0        0.774443   -0.435496    0.000000
      3          1           0       -0.774443   -0.440693    0.000000
 ---------------------------------------------------------------------
 Rotational constants (GHZ):    941.4573796    418.0364962    289.4926938
 Leave Link  202 at Fri Oct 30 23:43:46 2015, MaxMem=    33554432 cpu:         0.0
 (Enter /group/hpc-share/gaussian/2009D/g09/l301.exe)
 Standard basis: Aug-CC-pVTZ (5D, 7F)
 Ernie: Thresh=  0.10000D-02 Tol=  0.10000D-05 Strict=F.
 Ernie:  3 primitive shells out of 52 were deleted.
 There are    73 symmetry adapted cartesian basis functions of A'  symmetry.
 There are    32 symmetry adapted cartesian basis functions of A"  symmetry.
 There are    62 symmetry adapted basis functions of A'  symmetry.
 There are    30 symmetry adapted basis functions of A"  symmetry.
    92 basis functions,   126 primitive gaussians,   105 cartesian basis functions
     5 alpha electrons        5 beta electrons
       nuclear repulsion energy         9.2682233488 Hartrees.
 IExCor=    0 DFT=F Ex=HF Corr=None ExCW=0 ScaHFX=  1.000000
 ScaDFX=  1.000000  1.000000  1.000000  1.000000 ScalE2=  1.000000  1.000000
 IRadAn=      0 IRanWt=     -1 IRanGd=            0 ICorTp=0 IEmpDi=  4
 NAtoms=    3 NActive=    3 NUniq=    3 SFac= 1.00D+00 NAtFMM=   60 NAOKFM=F Big=F
 Integral buffers will be    131072 words long.
 Raffenetti 1 integral format.
 Two-electron integral symmetry is turned on.
 Leave Link  301 at Fri Oct 30 23:43:47 2015, MaxMem=    33554432 cpu:         0.7
 (Enter /group/hpc-share/gaussian/2009D/g09/l302.exe)
 NPDir=0 NMtPBC=     1 NCelOv=     1 NCel=       1 NClECP=     1 NCelD=      1
         NCelK=      1 NCelE2=     1 NClLst=     1 CellRange=     0.0.
 One-electron integrals computed using PRISM.
 PrsmSu:  requested number of processors reduced to:   4 ShMem   1 Linda.
 NBasis=    92 RedAO= T EigKep=  5.20D-04  NBF=    62    30
 NBsUse=    92 1.00D-06 EigRej= -1.00D+00 NBFU=    62    30
 Leave Link  302 at Fri Oct 30 23:43:47 2015, MaxMem=    33554432 cpu:         1.8
 (Enter /group/hpc-share/gaussian/2009D/g09/l303.exe)
 DipDrv:  MaxL=1.
 Leave Link  303 at Fri Oct 30 23:43:47 2015, MaxMem=    33554432 cpu:         0.3
 (Enter /group/hpc-share/gaussian/2009D/g09/l401.exe)
 ExpMin= 2.53D-02 ExpMax= 1.53D+04 ExpMxC= 5.22D+02 IAcc=3 IRadAn=         5 AccDes= 0.00D+00
 Harris functional with IExCor=  205 and IRadAn=       5 diagonalized for initial guess.
 HarFok:  IExCor=  205 AccDes= 0.00D+00 IRadAn=         5 IDoV= 1 UseB2=F ITyADJ=14
 ICtDFT=  3500011 ScaDFX=  1.000000  1.000000  1.000000  1.000000
 FoFCou: FMM=F IPFlag=           0 FMFlag=      100000 FMFlg1=           0
         NFxFlg=           0 DoJE=T BraDBF=F KetDBF=T FulRan=T
         wScrn=  0.000000 ICntrl=     500 IOpCl=  0 I1Cent=   200000004 NGrid=           0
         NMat0=    1 NMatS0=      1 NMatT0=    0 NMatD0=    1 NMtDS0=    0 NMtDT0=    0
 Petite list used in FoFCou.
 Harris En= -76.1543939636077    
 JPrj=0 DoOrth=F DoCkMO=F.
 Initial guess orbital symmetries:
       Occupied  (A') (A') (A') (A') (A")
       Virtual   (A') (A') (A') (A") (A') (A') (A') (A') (A") (A')
                 (A") (A') (A') (A') (A') (A') (A') (A") (A") (A')
                 (A') (A") (A") (A') (A") (A') (A') (A') (A') (A")
                 (A') (A') (A") (A') (A") (A') (A") (A') (A') (A')
                 (A') (A") (A") (A') (A') (A") (A') (A') (A") (A')
                 (A') (A") (A') (A') (A') (A") (A") (A') (A') (A")
                 (A") (A") (A') (A') (A') (A') (A') (A") (A') (A')
                 (A") (A') (A') (A') (A") (A') (A") (A') (A") (A")
                 (A") (A') (A') (A') (A') (A') (A')
 The electronic state of the initial guess is 1-A'.
 Leave Link  401 at Fri Oct 30 23:43:47 2015, MaxMem=    33554432 cpu:         1.7
 (Enter /group/hpc-share/gaussian/2009D/g09/l502.exe)
 Closed shell SCF:
 Using DIIS extrapolation, IDIIS=  1040.
 Integral symmetry usage will be decided dynamically.
 Keep R1 ints in memory in symmetry-blocked form, NReq=13871187.
 IVT=       53261 IEndB=       53261 NGot=    33554432 MDV=    28836119
 LenX=    28836119 LenY=    28824653
 Requested convergence on RMS density matrix=1.00D-08 within 128 cycles.
 Requested convergence on MAX density matrix=1.00D-06.
 Requested convergence on             energy=1.00D-06.
 No special actions if energy rises.
 FoFCou: FMM=F IPFlag=           0 FMFlag=           0 FMFlg1=           0
         NFxFlg=           0 DoJE=F BraDBF=F KetDBF=F FulRan=T
         wScrn=  0.000000 ICntrl=     600 IOpCl=  0 I1Cent=           0 NGrid=           0
         NMat0=    1 NMatS0=   4278 NMatT0=    0 NMatD0=    1 NMtDS0=    0 NMtDT0=    0
 Petite list used in FoFCou.

 Cycle   1  Pass 1  IDiag  1:
 E= -75.9696525992394    
 DIIS: error= 6.51D-02 at cycle   1 NSaved=   1.
 NSaved= 1 IEnMin= 1 EnMin= -75.9696525992394     IErMin= 1 ErrMin= 6.51D-02
 ErrMax= 6.51D-02  0.00D+00 EMaxC= 1.00D-01 BMatC= 2.08D-01 BMatP= 2.08D-01
 IDIUse=3 WtCom= 3.49D-01 WtEn= 6.51D-01
 Coeff-Com:  0.100D+01
 Coeff-En:   0.100D+01
 Coeff:      0.100D+01
 Gap=     0.450 Goal=   None    Shift=    0.000
 GapD=    0.450 DampG=2.000 DampE=0.500 DampFc=1.0000 IDamp=-1.
 RMSDP=2.18D-03 MaxDP=4.96D-02              OVMax= 1.23D-01

 Cycle   2  Pass 1  IDiag  1:
 E= -76.0237919991557     Delta-E=       -0.054139399916 Rises=F Damp=F
 DIIS: error= 4.20D-02 at cycle   2 NSaved=   2.
 NSaved= 2 IEnMin= 2 EnMin= -76.0237919991557     IErMin= 2 ErrMin= 4.20D-02
 ErrMax= 4.20D-02  0.00D+00 EMaxC= 1.00D-01 BMatC= 6.01D-02 BMatP= 2.08D-01
 IDIUse=3 WtCom= 5.80D-01 WtEn= 4.20D-01
 Coeff-Com:  0.322D+00 0.678D+00
 Coeff-En:   0.194D+00 0.806D+00
 Coeff:      0.268D+00 0.732D+00
 Gap=     0.568 Goal=   None    Shift=    0.000
 RMSDP=1.31D-03 MaxDP=3.36D-02 DE=-5.41D-02 OVMax= 6.56D-02

 Cycle   3  Pass 1  IDiag  1:
 E= -76.0588550793856     Delta-E=       -0.035063080230 Rises=F Damp=F
 DIIS: error= 9.22D-03 at cycle   3 NSaved=   3.
 NSaved= 3 IEnMin= 3 EnMin= -76.0588550793856     IErMin= 3 ErrMin= 9.22D-03
 ErrMax= 9.22D-03  0.00D+00 EMaxC= 1.00D-01 BMatC= 3.09D-03 BMatP= 6.01D-02
 IDIUse=3 WtCom= 9.08D-01 WtEn= 9.22D-02
 Coeff-Com: -0.304D-01 0.154D+00 0.876D+00
 Coeff-En:   0.000D+00 0.000D+00 0.100D+01
 Coeff:     -0.276D-01 0.140D+00 0.888D+00
 Gap=     0.537 Goal=   None    Shift=    0.000
 RMSDP=2.27D-04 MaxDP=4.35D-03 DE=-3.51D-02 OVMax= 1.27D-02

 Cycle   4  Pass 1  IDiag  1:
 E= -76.0607511502146     Delta-E=       -0.001896070829 Rises=F Damp=F
 DIIS: error= 7.21D-04 at cycle   4 NSaved=   4.
 NSaved= 4 IEnMin= 4 EnMin= -76.0607511502146     IErMin= 4 ErrMin= 7.21D-04
 ErrMax= 7.21D-04  0.00D+00 EMaxC= 1.00D-01 BMatC= 1.50D-05 BMatP= 3.09D-03
 IDIUse=3 WtCom= 9.93D-01 WtEn= 7.21D-03
 Coeff-Com:  0.636D-02-0.549D-01-0.224D+00 0.127D+01
 Coeff-En:   0.000D+00 0.000D+00 0.000D+00 0.100D+01
 Coeff:      0.632D-02-0.545D-01-0.222D+00 0.127D+01
 Gap=     0.539 Goal=   None    Shift=    0.000
 RMSDP=3.58D-05 MaxDP=7.27D-04 DE=-1.90D-03 OVMax= 2.23D-03

 Cycle   5  Pass 1  IDiag  1:
 E= -76.0607741084855     Delta-E=       -0.000022958271 Rises=F Damp=F
 DIIS: error= 1.87D-04 at cycle   5 NSaved=   5.
 NSaved= 5 IEnMin= 5 EnMin= -76.0607741084855     IErMin= 5 ErrMin= 1.87D-04
 ErrMax= 1.87D-04  0.00D+00 EMaxC= 1.00D-01 BMatC= 6.40D-07 BMatP= 1.50D-05
 IDIUse=3 WtCom= 9.98D-01 WtEn= 1.87D-03
 Coeff-Com:  0.304D-03 0.238D-02 0.455D-02-0.286D+00 0.128D+01
 Coeff-En:   0.000D+00 0.000D+00 0.000D+00 0.000D+00 0.100D+01
 Coeff:      0.304D-03 0.237D-02 0.454D-02-0.286D+00 0.128D+01
 Gap=     0.539 Goal=   None    Shift=    0.000
 RMSDP=1.10D-05 MaxDP=2.12D-04 DE=-2.30D-05 OVMax= 7.27D-04

 Cycle   6  Pass 1  IDiag  1:
 E= -76.0607756967758     Delta-E=       -0.000001588290 Rises=F Damp=F
 DIIS: error= 2.71D-05 at cycle   6 NSaved=   6.
 NSaved= 6 IEnMin= 6 EnMin= -76.0607756967758     IErMin= 6 ErrMin= 2.71D-05
 ErrMax= 2.71D-05  0.00D+00 EMaxC= 1.00D-01 BMatC= 1.77D-08 BMatP= 6.40D-07
 IDIUse=1 WtCom= 1.00D+00 WtEn= 0.00D+00
 Coeff-Com: -0.250D-03 0.111D-02 0.487D-02 0.266D-01-0.331D+00 0.130D+01
 Coeff:     -0.250D-03 0.111D-02 0.487D-02 0.266D-01-0.331D+00 0.130D+01
 Gap=     0.539 Goal=   None    Shift=    0.000
 RMSDP=2.17D-06 MaxDP=5.13D-05 DE=-1.59D-06 OVMax= 1.50D-04

 Cycle   7  Pass 1  IDiag  1:
 E= -76.0607757504470     Delta-E=       -0.000000053671 Rises=F Damp=F
 DIIS: error= 4.48D-06 at cycle   7 NSaved=   7.
 NSaved= 7 IEnMin= 7 EnMin= -76.0607757504470     IErMin= 7 ErrMin= 4.48D-06
 ErrMax= 4.48D-06  0.00D+00 EMaxC= 1.00D-01 BMatC= 8.21D-10 BMatP= 1.77D-08
 IDIUse=1 WtCom= 1.00D+00 WtEn= 0.00D+00
 Coeff-Com:  0.256D-04-0.329D-03-0.124D-02 0.133D-01-0.166D-01-0.178D+00
 Coeff-Com:  0.118D+01
 Coeff:      0.256D-04-0.329D-03-0.124D-02 0.133D-01-0.166D-01-0.178D+00
 Coeff:      0.118D+01
 Gap=     0.539 Goal=   None    Shift=    0.000
 RMSDP=3.10D-07 MaxDP=7.41D-06 DE=-5.37D-08 OVMax= 2.63D-05

 Cycle   8  Pass 1  IDiag  1:
 E= -76.0607757522985     Delta-E=       -0.000000001852 Rises=F Damp=F
 DIIS: error= 1.05D-06 at cycle   8 NSaved=   8.
 NSaved= 8 IEnMin= 8 EnMin= -76.0607757522985     IErMin= 8 ErrMin= 1.05D-06
 ErrMax= 1.05D-06  0.00D+00 EMaxC= 1.00D-01 BMatC= 4.69D-11 BMatP= 8.21D-10
 IDIUse=1 WtCom= 1.00D+00 WtEn= 0.00D+00
 Coeff-Com:  0.781D-05 0.192D-04 0.675D-04-0.509D-02 0.222D-01-0.234D-01
 Coeff-Com: -0.336D+00 0.134D+01
 Coeff:      0.781D-05 0.192D-04 0.675D-04-0.509D-02 0.222D-01-0.234D-01
 Coeff:     -0.336D+00 0.134D+01
 Gap=     0.540 Goal=   None    Shift=    0.000
 RMSDP=1.01D-07 MaxDP=2.27D-06 DE=-1.85D-09 OVMax= 6.86D-06

 Cycle   9  Pass 1  IDiag  1:
 E= -76.0607757524183     Delta-E=       -0.000000000120 Rises=F Damp=F
 DIIS: error= 1.41D-07 at cycle   9 NSaved=   9.
 NSaved= 9 IEnMin= 9 EnMin= -76.0607757524183     IErMin= 9 ErrMin= 1.41D-07
 ErrMax= 1.41D-07  0.00D+00 EMaxC= 1.00D-01 BMatC= 5.72D-13 BMatP= 4.69D-11
 IDIUse=1 WtCom= 1.00D+00 WtEn= 0.00D+00
 Coeff-Com: -0.188D-05 0.107D-05 0.156D-05 0.806D-03-0.382D-02 0.653D-02
 Coeff-Com:  0.561D-01-0.308D+00 0.125D+01
 Coeff:     -0.188D-05 0.107D-05 0.156D-05 0.806D-03-0.382D-02 0.653D-02
 Coeff:      0.561D-01-0.308D+00 0.125D+01
 Gap=     0.539 Goal=   None    Shift=    0.000
 RMSDP=1.51D-08 MaxDP=3.36D-07 DE=-1.20D-10 OVMax= 6.70D-07

 Cycle  10  Pass 1  IDiag  1:
 E= -76.0607757524197     Delta-E=       -0.000000000001 Rises=F Damp=F
 DIIS: error= 2.96D-08 at cycle  10 NSaved=  10.
 NSaved=10 IEnMin=10 EnMin= -76.0607757524197     IErMin=10 ErrMin= 2.96D-08
 ErrMax= 2.96D-08  0.00D+00 EMaxC= 1.00D-01 BMatC= 2.09D-14 BMatP= 5.72D-13
 IDIUse=1 WtCom= 1.00D+00 WtEn= 0.00D+00
 Coeff-Com:  0.513D-06-0.871D-06-0.197D-05-0.183D-03 0.919D-03-0.205D-02
 Coeff-Com: -0.108D-01 0.752D-01-0.449D+00 0.139D+01
 Coeff:      0.513D-06-0.871D-06-0.197D-05-0.183D-03 0.919D-03-0.205D-02
 Coeff:     -0.108D-01 0.752D-01-0.449D+00 0.139D+01
 Gap=     0.539 Goal=   None    Shift=    0.000
 RMSDP=3.35D-09 MaxDP=6.95D-08 DE=-1.41D-12 OVMax= 1.40D-07

 SCF Done:  E(RHF) =  -76.0607757524     A.U. after   10 cycles
            NFock= 10  Conv=0.33D-08     -V/T= 2.0010
 KE= 7.598514903430D+01 PE=-1.991695455097D+02 EE= 3.785539737421D+01
 Leave Link  502 at Fri Oct 30 23:43:48 2015, MaxMem=    33554432 cpu:         4.8
 (Enter /group/hpc-share/gaussian/2009D/g09/l801.exe)
 ExpMin= 2.53D-02 ExpMax= 1.53D+04 ExpMxC= 5.22D+02 IAcc=3 IRadAn=         5 AccDes= 0.00D+00
 HarFok:  IExCor=  205 AccDes= 0.00D+00 IRadAn=         5 IDoV=-2 UseB2=F ITyADJ=14
 ICtDFT= 12500011 ScaDFX=  1.000000  1.000000  1.000000  1.000000
 Largest valence mixing into a core orbital is  1.10D-04
 Largest core mixing into a valence orbital is  1.68D-05
 Range of M.O.s used for correlation:     2    92
 NBasis=    92 NAE=     5 NBE=     5 NFC=     1 NFV=     0
 NROrb=     91 NOA=     4 NOB=     4 NVA=    87 NVB=    87

 **** Warning!!: The largest alpha MO coefficient is  0.16310395D+02

 Leave Link  801 at Fri Oct 30 23:43:48 2015, MaxMem=    33554432 cpu:         0.5
 (Enter /group/hpc-share/gaussian/2009D/g09/l906.exe)
 Frozen-core derivative calculation, NFC=   1 NFV=   0.
 FulOut=F Deriv=T AODrv=T NAtomX=     3
   MMem=          54  MDisk=           4 MDiskD=           4
  W3Min=       48300 MinDsk=      199415 NBas6D=         105
 NBas2D=        5790    NTT=        5565    LW2=     3500000
    MDV=    33439379 MDiskM=        1497 NBas2p=        5790
 Fully direct method using O(ONN) memory.
 IMap=   1   2   3   4   5
 JobTyp=1 Pass  1:  I=   2 to   5 NPSUse=  3 ParTrn=F ParDer=T DoDerP=T.
 Spin components of T(2) and E(2):
     alpha-alpha T2 =       0.8028494146D-02 E2=     -0.3245353412D-01
     alpha-beta  T2 =       0.4655842888D-01 E2=     -0.2024460880D+00
     beta-beta   T2 =       0.8028494146D-02 E2=     -0.3245353412D-01
 The integrals were generated   1 times.
 ANorm=    0.1030832390D+01
 E2 =    -0.2673531563D+00 EUMP2 =    -0.76328128908687D+02
 Leave Link  906 at Fri Oct 30 23:43:50 2015, MaxMem=    33554432 cpu:         6.6
 (Enter /group/hpc-share/gaussian/2009D/g09/l1002.exe)
 Minotr:  Closed shell wavefunction.
          Computing MP2/KS-MP2 derivatives.
          Using Z-Vector for PSCF gradient.
          Skipping F1 and S1 gradient terms here.
          IDoAtm=111
          Frozen-core window.
          Direct CPHF calculation.
          Differentiating once with respect to electric field.
                with respect to dipole field.
          Differentiating once with respect to nuclear coordinates.
          Using symmetry in CPHF.
          Requested convergence is 1.0D-10 RMS, and 1.0D-09 maximum.
          NewPWx=F KeepS1=T KeepF1=T KeepIn=T MapXYZ=F SortEE=F KeepMc=T.
          MDV=      33554307 using IRadAn=       0.
 Keep R1 ints in memory in symmetry-blocked form, NReq=13818934.
 FoFCou: FMM=F IPFlag=           0 FMFlag=           0 FMFlg1=           0
         NFxFlg=           0 DoJE=F BraDBF=F KetDBF=F FulRan=T
         wScrn=  0.000000 ICntrl=     600 IOpCl=  0 I1Cent=           0 NGrid=           0
         NMat0=    1 NMatS0=   4278 NMatT0=    0 NMatD0=    1 NMtDS0=    0 NMtDT0=    0
 Petite list used in FoFCou.
          Solving linear equations separately, MaxMat=       0.
          There are     1 degrees of freedom in the 1st order CPHF.  IDoFFX=0 NUNeed=     1.
 LinEq1:  Iter=  0 NonCon=     1 RMS=4.54D-03 Max=4.78D-02 NDo=     1
 AX will form     1 AO Fock derivatives at one time.
 LinEq1:  Iter=  1 NonCon=     1 RMS=5.95D-04 Max=4.49D-03 NDo=     1
 LinEq1:  Iter=  2 NonCon=     1 RMS=2.15D-04 Max=1.84D-03 NDo=     1
 LinEq1:  Iter=  3 NonCon=     1 RMS=5.76D-05 Max=4.37D-04 NDo=     1
 LinEq1:  Iter=  4 NonCon=     1 RMS=8.76D-06 Max=5.58D-05 NDo=     1
 LinEq1:  Iter=  5 NonCon=     1 RMS=1.65D-06 Max=1.12D-05 NDo=     1
 LinEq1:  Iter=  6 NonCon=     1 RMS=2.33D-07 Max=1.60D-06 NDo=     1
 LinEq1:  Iter=  7 NonCon=     1 RMS=2.54D-08 Max=2.21D-07 NDo=     1
 LinEq1:  Iter=  8 NonCon=     1 RMS=3.15D-09 Max=3.26D-08 NDo=     1
 LinEq1:  Iter=  9 NonCon=     1 RMS=3.15D-10 Max=2.07D-09 NDo=     1
 LinEq1:  Iter= 10 NonCon=     0 RMS=3.11D-11 Max=1.93D-10 NDo=     1
 Linear equations converged to 1.000D-10 1.000D-09 after    10 iterations.
 End of Minotr F.D. properties file   721 does not exist.
 End of Minotr F.D. properties file   722 does not exist.
 End of Minotr F.D. properties file   788 does not exist.
 Leave Link 1002 at Fri Oct 30 23:43:51 2015, MaxMem=    33554432 cpu:         5.1
 (Enter /group/hpc-share/gaussian/2009D/g09/l601.exe)
 Copying SCF densities to generalized density rwf, IOpCl= 0 IROHF=0.

 **********************************************************************

            Population analysis using the SCF density.

 **********************************************************************

 Orbital symmetries:
       Occupied  (A') (A') (A') (A') (A")
       Virtual   (A') (A') (A') (A") (A') (A') (A') (A') (A") (A")
                 (A') (A') (A') (A') (A') (A') (A') (A") (A") (A')
                 (A") (A') (A') (A") (A") (A') (A') (A') (A') (A")
                 (A') (A") (A') (A') (A") (A') (A") (A') (A') (A')
                 (A') (A") (A') (A") (A") (A') (A') (A') (A') (A")
                 (A') (A') (A") (A') (A') (A") (A") (A') (A') (A")
                 (A") (A") (A') (A') (A') (A') (A') (A") (A') (A')
                 (A") (A') (A') (A') (A") (A') (A") (A") (A') (A")
                 (A") (A') (A') (A') (A') (A') (A')
 The electronic state is 1-A'.
 Alpha  occ. eigenvalues --  -20.56343  -1.35462  -0.73217  -0.57693  -0.50965
 Alpha virt. eigenvalues --    0.02985   0.04742   0.13664   0.15720   0.17432
 Alpha virt. eigenvalues --    0.18177   0.22995   0.24470   0.26355   0.30631
 Alpha virt. eigenvalues --    0.31437   0.36532   0.43981   0.46825   0.60358
 Alpha virt. eigenvalues --    0.65405   0.71195   0.71838   0.73057   0.83018
 Alpha virt. eigenvalues --    0.84425   0.88806   0.91444   0.92109   0.92420
 Alpha virt. eigenvalues --    0.92785   0.97450   1.02691   1.04884   1.08681
 Alpha virt. eigenvalues --    1.11774   1.17377   1.17933   1.25671   1.51809
 Alpha virt. eigenvalues --    1.56759   1.60420   1.78273   1.79157   2.01916
 Alpha virt. eigenvalues --    2.12341   2.25937   2.31799   2.32142   2.41202
 Alpha virt. eigenvalues --    2.41521   2.43599   2.46887   2.68424   2.70207
 Alpha virt. eigenvalues --    2.77835   2.86933   2.88770   3.65759   3.78640
 Alpha virt. eigenvalues --    4.01167   4.10125   4.22806   4.23852   4.35061
 Alpha virt. eigenvalues --    4.38661   4.40843   4.42457   4.49147   4.71337
 Alpha virt. eigenvalues --    4.82152   5.14516   5.19917   5.33638   5.36427
 Alpha virt. eigenvalues --    5.53519   5.74813   6.14484   6.53210   6.70965
 Alpha virt. eigenvalues --    6.85701   7.14572   7.27317   7.28398   7.31412
 Alpha virt. eigenvalues --    7.37411   7.42751   7.58915   7.91529   7.99271
 Alpha virt. eigenvalues --    8.82035  16.15936
          Condensed to atoms (all electrons):
               1          2          3
     1  O    7.867609   0.277881   0.277947
     2  H    0.277881   0.499917   0.011948
     3  H    0.277947   0.011948   0.496922
 Mulliken charges:
               1
     1  O   -0.423436
     2  H    0.210254
     3  H    0.213183
 Sum of Mulliken charges =   0.00000
 Mulliken charges with hydrogens summed into heavy atoms:
               1
     1  O    0.000000
 Electronic spatial extent (au):  <R**2>=             19.3690
 Charge=              0.0000 electrons
 Dipole moment (field-independent basis, Debye):
    X=              0.0011    Y=             -1.8920    Z=              0.0000  Tot=              1.8920
 Quadrupole moment (field-independent basis, Debye-Ang):
   XX=             -4.0523   YY=             -6.3872   ZZ=             -7.5462
   XY=              0.0093   XZ=              0.0000   YZ=              0.0000
 Traceless Quadrupole moment (field-independent basis, Debye-Ang):
   XX=              1.9429   YY=             -0.3919   ZZ=             -1.5510
   XY=              0.0093   XZ=              0.0000   YZ=              0.0000
 Octapole moment (field-independent basis, Debye-Ang**2):
  XXX=              0.0039  YYY=             -1.0537  ZZZ=              0.0000  XYY=             -0.0061
  XXY=             -1.3850  XXZ=              0.0000  XZZ=              0.0016  YZZ=             -0.2491
  YYZ=              0.0000  XYZ=              0.0000
 Hexadecapole moment (field-independent basis, Debye-Ang**3):
 XXXX=             -5.7292 YYYY=             -7.1629 ZZZZ=             -6.7261 XXXY=              0.0008
 XXXZ=              0.0000 YYYX=              0.0001 YYYZ=              0.0000 ZZZX=              0.0000
 ZZZY=              0.0000 XXYY=             -1.8883 XXZZ=             -2.4425 YYZZ=             -2.3524
 XXYZ=              0.0000 YYXZ=              0.0000 ZZXY=             -0.0021
 N-N= 9.268223348751D+00 E-N=-1.991695455268D+02  KE= 7.598514903430D+01
 Symmetry A'   KE= 7.152551660387D+01
 Symmetry A"   KE= 4.459632430430D+00
 No NMR shielding tensors so no spin-rotation constants.
 Leave Link  601 at Fri Oct 30 23:43:51 2015, MaxMem=    33554432 cpu:         1.4
 (Enter /group/hpc-share/gaussian/2009D/g09/l701.exe)
 Compute integral first derivatives.
 ... and contract with generalized density number  2.
 PrsmSu:  requested number of processors reduced to:   4 ShMem   1 Linda.
 Leave Link  701 at Fri Oct 30 23:43:52 2015, MaxMem=    33554432 cpu:         1.5
 (Enter /group/hpc-share/gaussian/2009D/g09/l702.exe)
 L702 exits ... SP integral derivatives will be done elsewhere.
 Leave Link  702 at Fri Oct 30 23:43:52 2015, MaxMem=    33554432 cpu:         0.1
 (Enter /group/hpc-share/gaussian/2009D/g09/l703.exe)
 Compute integral first derivatives, UseDBF=F ICtDFT=           0.
 Integral derivatives from FoFJK, PRISM(SPDF).
 Calling FoFJK, ICntrl=  10002127 FMM=F ISym2X=1 I1Cent= 0 IOpClX= 0 NMat=1 NMatS=1 NMatT=0.
 FoFJK:  IHMeth= 1 ICntrl=10002127 DoSepK=F KAlg= 0 I1Cent=   0 FoldK=F
 IRaf=         0 NMat=   1 IRICut=       1 DoRegI=T DoRafI=F ISym2E= 1.
 FoFCou: FMM=F IPFlag=           0 FMFlag=      100000 FMFlg1=         800
         NFxFlg=           0 DoJE=F BraDBF=F KetDBF=F FulRan=T
         wScrn=  0.000000 ICntrl=10002127 IOpCl=  0 I1Cent=           0 NGrid=           0
         NMat0=    1 NMatS0=      1 NMatT0=    0 NMatD0=    1 NMtDS0=    0 NMtDT0=    0
 Petite list used in FoFCou.
 Leave Link  703 at Fri Oct 30 23:43:52 2015, MaxMem=    33554432 cpu:         5.0
 (Enter /group/hpc-share/gaussian/2009D/g09/l716.exe)
 Dipole        = 3.87578128D-04-6.97102898D-01-2.82701074D-33
 ***** Axes restored to original set *****
 -------------------------------------------------------------------
 Center     Atomic                   Forces (Hartrees/Bohr)
 Number     Number              X              Y              Z
 -------------------------------------------------------------------
      1        8          -0.017923828    0.000000000   -0.016072617
      2        1           0.007119429    0.000000000    0.012365100
      3        1           0.010804399    0.000000000    0.003707517
 -------------------------------------------------------------------
 Cartesian Forces:  Max     0.017923828 RMS     0.010075577
 Leave Link  716 at Fri Oct 30 23:43:53 2015, MaxMem=    33554432 cpu:         0.3
 (Enter /group/hpc-share/gaussian/2009D/g09/l103.exe)

 GradGradGradGradGradGradGradGradGradGradGradGradGradGradGradGradGradGrad
 Berny optimization.
 FormGI is forming the generalized inverse of G from B-inverse, IUseBI=4.
 Internal  Forces:  Max     0.012740721 RMS     0.011479485
 Search for a local minimum.
 Step number   1 out of a maximum of   20
 All quantities printed in internal units (Hartrees-Bohrs-Radians)
 RMS Force = .11479D-01 SwitMx=.10000D-02 MixMth= 1
 Mixed Optimization -- RFO/linear search
 Second derivative matrix not updated -- first step.
 The second derivative matrix:
                          R1        R2        A1
           R1           0.58366
           R2           0.00000   0.57681
           A1           0.00000   0.00000   0.16000
 ITU=  0
     Eigenvalues ---    0.16000   0.57681   0.58366
 RFO step:  Lambda=-1.40558647D-03 EMin= 1.60000000D-01
 Linear search not attempted -- first point.
 Iteration  1 RMS(Cart)=  0.03856147 RMS(Int)=  0.00122763
 Iteration  2 RMS(Cart)=  0.00127684 RMS(Int)=  0.00000039
 Iteration  3 RMS(Cart)=  0.00000031 RMS(Int)=  0.00000000
 ITry= 1 IFail=0 DXMaxC= 3.59D-02 DCOld= 1.00D+10 DXMaxT= 3.00D-01 DXLimC= 3.00D+00 Rises=F
 ClnCor:  largest displacement from symmetrization is 1.11D-15 for atom     2.
 Variable       Old X    -DE/DX   Delta X   Delta X   Delta X     New X
                                 (Linear)    (Quad)   (Total)
    R1        1.78957   0.01237   0.00000   0.02113   0.02113   1.81071
    R2        1.79524   0.00895   0.00000   0.01548   0.01548   1.81072
    A1        1.91063  -0.01274   0.00000  -0.07894  -0.07894   1.83170
         Item               Value     Threshold  Converged?
 Maximum Force            0.012741     0.000450     NO 
 RMS     Force            0.011479     0.000300     NO 
 Maximum Displacement     0.035920     0.001800     NO 
 RMS     Displacement     0.039181     0.001200     NO 
 Predicted change in Energy=-7.076544D-04
 Lowest energy point so far.  Saving SCF results.
 GradGradGradGradGradGradGradGradGradGradGradGradGradGradGradGradGradGrad

 Leave Link  103 at Fri Oct 30 23:43:53 2015, MaxMem=    33554432 cpu:         0.1
 (Enter /group/hpc-share/gaussian/2009D/g09/l202.exe)
                          Input orientation:                          
 ---------------------------------------------------------------------
 Center     Atomic      Atomic             Coordinates (Angstroms)
 Number     Number       Type             X           Y           Z
 ---------------------------------------------------------------------
      1          8           0       -0.019008    0.000000   -0.014725
      2          1           0        0.018223    0.000000    0.942735
      3          1           0        0.896453    0.000000   -0.297677
 ---------------------------------------------------------------------
                    Distance matrix (angstroms):
                    1          2          3
     1  O    0.000000
     2  H    0.958184   0.000000
     3  H    0.958192   1.519839   0.000000
 Stoichiometry    H2O
 Framework group  CS[SG(H2O)]
 Deg. of freedom     3
 Full point group                 CS      NOp   2
 RotChk:  IX=0 Diff= 4.01D-03
 Largest Abelian subgroup         CS      NOp   2
 Largest concise Abelian subgroup C1      NOp   1
                         Standard orientation:                         
 ---------------------------------------------------------------------
 Center     Atomic      Atomic             Coordinates (Angstroms)
 Number     Number       Type             X           Y           Z
 ---------------------------------------------------------------------
      1          8           0        0.000000    0.116730    0.000000
      2          1           0        0.759919   -0.466913    0.000000
      3          1           0       -0.759919   -0.466926    0.000000
 ---------------------------------------------------------------------
 Rotational constants (GHZ):    828.7884581    434.1773195    284.9175786
 Leave Link  202 at Fri Oct 30 23:43:53 2015, MaxMem=    33554432 cpu:         0.0
 (Enter /group/hpc-share/gaussian/2009D/g09/l301.exe)
 Standard basis: Aug-CC-pVTZ (5D, 7F)
 Ernie: Thresh=  0.10000D-02 Tol=  0.10000D-05 Strict=F.
 Ernie:  3 primitive shells out of 52 were deleted.
 There are    73 symmetry adapted cartesian basis functions of A'  symmetry.
 There are    32 symmetry adapted cartesian basis functions of A"  symmetry.
 There are    62 symmetry adapted basis functions of A'  symmetry.
 There are    30 symmetry adapted basis functions of A"  symmetry.
    92 basis functions,   126 primitive gaussians,   105 cartesian basis functions
     5 alpha electrons        5 beta electrons
       nuclear repulsion energy         9.1844812502 Hartrees.
 IExCor=    0 DFT=F Ex=HF Corr=None ExCW=0 ScaHFX=  1.000000
 ScaDFX=  1.000000  1.000000  1.000000  1.000000 ScalE2=  1.000000  1.000000
 IRadAn=      0 IRanWt=     -1 IRanGd=            0 ICorTp=0 IEmpDi=  4
 NAtoms=    3 NActive=    3 NUniq=    3 SFac= 1.00D+00 NAtFMM=   60 NAOKFM=F Big=F
 Integral buffers will be    131072 words long.
 Raffenetti 1 integral format.
 Two-electron integral symmetry is turned on.
 Leave Link  301 at Fri Oct 30 23:43:53 2015, MaxMem=    33554432 cpu:         0.4
 (Enter /group/hpc-share/gaussian/2009D/g09/l302.exe)
 NPDir=0 NMtPBC=     1 NCelOv=     1 NCel=       1 NClECP=     1 NCelD=      1
         NCelK=      1 NCelE2=     1 NClLst=     1 CellRange=     0.0.
 One-electron integrals computed using PRISM.
 PrsmSu:  requested number of processors reduced to:   4 ShMem   1 Linda.
 NBasis=    92 RedAO= T EigKep=  5.44D-04  NBF=    62    30
 NBsUse=    92 1.00D-06 EigRej= -1.00D+00 NBFU=    62    30
 Leave Link  302 at Fri Oct 30 23:43:53 2015, MaxMem=    33554432 cpu:         1.8
 (Enter /group/hpc-share/gaussian/2009D/g09/l303.exe)
 DipDrv:  MaxL=1.
 Leave Link  303 at Fri Oct 30 23:43:53 2015, MaxMem=    33554432 cpu:         0.2
 (Enter /group/hpc-share/gaussian/2009D/g09/l401.exe)
 Initial guess from the checkpoint file:  "water.chk"
 B after Tr=     0.000000    0.000000    0.000000
         Rot=    0.999999    0.000000    0.000000    0.001166 Ang=   0.13 deg.
 Guess basis will be translated and rotated to current coordinates.
 JPrj=2 DoOrth=T DoCkMO=T.
 Initial guess orbital symmetries:
       Occupied  (A') (A') (A') (A') (A")
       Virtual   (A') (A') (A') (A') (A') (A') (A') (A') (A') (A')
                 (A') (A') (A') (A') (A') (A') (A') (A') (A') (A')
                 (A') (A') (A') (A') (A') (A') (A') (A') (A') (A')
                 (A') (A') (A') (A') (A') (A') (A') (A') (A') (A')
                 (A') (A') (A') (A') (A') (A') (A') (A') (A') (A')
                 (A') (A') (A') (A') (A') (A') (A') (A') (A") (A")
                 (A") (A") (A") (A") (A") (A") (A") (A") (A") (A")
                 (A") (A") (A") (A") (A") (A") (A") (A") (A") (A")
                 (A") (A") (A") (A") (A") (A") (A")
 The electronic state of the initial guess is 1-A'.
 Generating alternative initial guess.
 ExpMin= 2.53D-02 ExpMax= 1.53D+04 ExpMxC= 5.22D+02 IAcc=3 IRadAn=         5 AccDes= 0.00D+00
 Harris functional with IExCor=  205 and IRadAn=       5 diagonalized for initial guess.
 HarFok:  IExCor=  205 AccDes= 0.00D+00 IRadAn=         5 IDoV= 1 UseB2=F ITyADJ=14
 ICtDFT=  3500011 ScaDFX=  1.000000  1.000000  1.000000  1.000000
 FoFCou: FMM=F IPFlag=           0 FMFlag=      100000 FMFlg1=           0
         NFxFlg=           0 DoJE=T BraDBF=F KetDBF=T FulRan=T
         wScrn=  0.000000 ICntrl=     500 IOpCl=  0 I1Cent=   200000004 NGrid=           0
         NMat0=    1 NMatS0=      1 NMatT0=    0 NMatD0=    1 NMtDS0=    0 NMtDT0=    0
 Petite list used in FoFCou.
 Harris En= -76.1535913519729    
 Leave Link  401 at Fri Oct 30 23:43:53 2015, MaxMem=    33554432 cpu:         2.0
 (Enter /group/hpc-share/gaussian/2009D/g09/l502.exe)
 Closed shell SCF:
 Using DIIS extrapolation, IDIIS=  1040.
 Integral symmetry usage will be decided dynamically.
 Keep R1 ints in memory in symmetry-blocked form, NReq=13871187.
 IVT=       53261 IEndB=       53261 NGot=    33554432 MDV=    28836119
 LenX=    28836119 LenY=    28824653
 Requested convergence on RMS density matrix=1.00D-08 within 128 cycles.
 Requested convergence on MAX density matrix=1.00D-06.
 Requested convergence on             energy=1.00D-06.
 No special actions if energy rises.
 FoFCou: FMM=F IPFlag=           0 FMFlag=           0 FMFlg1=           0
         NFxFlg=           0 DoJE=F BraDBF=F KetDBF=F FulRan=T
         wScrn=  0.000000 ICntrl=     600 IOpCl=  0 I1Cent=           0 NGrid=           0
         NMat0=    1 NMatS0=   4278 NMatT0=    0 NMatD0=    1 NMtDS0=    0 NMtDT0=    0
 Petite list used in FoFCou.

 Cycle   1  Pass 1  IDiag  1:
 E= -76.0601647319574    
 DIIS: error= 3.08D-03 at cycle   1 NSaved=   1.
 NSaved= 1 IEnMin= 1 EnMin= -76.0601647319574     IErMin= 1 ErrMin= 3.08D-03
 ErrMax= 3.08D-03  0.00D+00 EMaxC= 1.00D-01 BMatC= 4.43D-04 BMatP= 4.43D-04
 IDIUse=3 WtCom= 9.69D-01 WtEn= 3.08D-02
 Coeff-Com:  0.100D+01
 Coeff-En:   0.100D+01
 Coeff:      0.100D+01
 Gap=     0.821 Goal=   None    Shift=    0.000
 GapD=    0.821 DampG=2.000 DampE=1.000 DampFc=2.0000 IDamp=-1.
 RMSDP=2.02D-04 MaxDP=3.97D-03              OVMax= 6.53D-03

 Cycle   2  Pass 1  IDiag  1:
 E= -76.0605418555115     Delta-E=       -0.000377123554 Rises=F Damp=F
 DIIS: error= 4.81D-04 at cycle   2 NSaved=   2.
 NSaved= 2 IEnMin= 2 EnMin= -76.0605418555115     IErMin= 2 ErrMin= 4.81D-04
 ErrMax= 4.81D-04  0.00D+00 EMaxC= 1.00D-01 BMatC= 1.83D-05 BMatP= 4.43D-04
 IDIUse=3 WtCom= 9.95D-01 WtEn= 4.81D-03
 Coeff-Com: -0.149D+00 0.115D+01
 Coeff-En:   0.000D+00 0.100D+01
 Coeff:     -0.148D+00 0.115D+01
 Gap=     0.540 Goal=   None    Shift=    0.000
 RMSDP=5.28D-05 MaxDP=1.05D-03 DE=-3.77D-04 OVMax= 2.48D-03

 Cycle   3  Pass 1  IDiag  1:
 E= -76.0605675641383     Delta-E=       -0.000025708627 Rises=F Damp=F
 DIIS: error= 1.72D-04 at cycle   3 NSaved=   3.
 NSaved= 3 IEnMin= 3 EnMin= -76.0605675641383     IErMin= 3 ErrMin= 1.72D-04
 ErrMax= 1.72D-04  0.00D+00 EMaxC= 1.00D-01 BMatC= 6.90D-07 BMatP= 1.83D-05
 IDIUse=3 WtCom= 9.98D-01 WtEn= 1.72D-03
 Coeff-Com: -0.542D-02-0.992D-01 0.110D+01
 Coeff-En:   0.000D+00 0.000D+00 0.100D+01
 Coeff:     -0.541D-02-0.991D-01 0.110D+01
 Gap=     0.539 Goal=   None    Shift=    0.000
 RMSDP=1.38D-05 MaxDP=2.55D-04 DE=-2.57D-05 OVMax= 7.34D-04

 Cycle   4  Pass 1  IDiag  1:
 E= -76.0605691673573     Delta-E=       -0.000001603219 Rises=F Damp=F
 DIIS: error= 4.62D-05 at cycle   4 NSaved=   4.
 NSaved= 4 IEnMin= 4 EnMin= -76.0605691673573     IErMin= 4 ErrMin= 4.62D-05
 ErrMax= 4.62D-05  0.00D+00 EMaxC= 1.00D-01 BMatC= 7.26D-08 BMatP= 6.90D-07
 IDIUse=1 WtCom= 1.00D+00 WtEn= 0.00D+00
 Coeff-Com:  0.752D-02-0.662D-01-0.103D-01 0.107D+01
 Coeff:      0.752D-02-0.662D-01-0.103D-01 0.107D+01
 Gap=     0.540 Goal=   None    Shift=    0.000
 RMSDP=4.48D-06 MaxDP=1.06D-04 DE=-1.60D-06 OVMax= 2.45D-04

 Cycle   5  Pass 1  IDiag  1:
 E= -76.0605693106237     Delta-E=       -0.000000143266 Rises=F Damp=F
 DIIS: error= 1.22D-05 at cycle   5 NSaved=   5.
 NSaved= 5 IEnMin= 5 EnMin= -76.0605693106237     IErMin= 5 ErrMin= 1.22D-05
 ErrMax= 1.22D-05  0.00D+00 EMaxC= 1.00D-01 BMatC= 9.86D-09 BMatP= 7.26D-08
 IDIUse=1 WtCom= 1.00D+00 WtEn= 0.00D+00
 Coeff-Com:  0.216D-02-0.112D-01-0.721D-01 0.271D+00 0.810D+00
 Coeff:      0.216D-02-0.112D-01-0.721D-01 0.271D+00 0.810D+00
 Gap=     0.540 Goal=   None    Shift=    0.000
 RMSDP=1.12D-06 MaxDP=3.84D-05 DE=-1.43D-07 OVMax= 6.19D-05

 Cycle   6  Pass 1  IDiag  1:
 E= -76.0605693235003     Delta-E=       -0.000000012877 Rises=F Damp=F
 DIIS: error= 6.59D-06 at cycle   6 NSaved=   6.
 NSaved= 6 IEnMin= 6 EnMin= -76.0605693235003     IErMin= 6 ErrMin= 6.59D-06
 ErrMax= 6.59D-06  0.00D+00 EMaxC= 1.00D-01 BMatC= 8.16D-10 BMatP= 9.86D-09
 IDIUse=1 WtCom= 1.00D+00 WtEn= 0.00D+00
 Coeff-Com: -0.104D-02 0.885D-02 0.113D-01-0.177D+00-0.520D-01 0.121D+01
 Coeff:     -0.104D-02 0.885D-02 0.113D-01-0.177D+00-0.520D-01 0.121D+01
 Gap=     0.540 Goal=   None    Shift=    0.000
 RMSDP=3.92D-07 MaxDP=8.24D-06 DE=-1.29D-08 OVMax= 2.80D-05

 Cycle   7  Pass 1  IDiag  1:
 E= -76.0605693254965     Delta-E=       -0.000000001996 Rises=F Damp=F
 DIIS: error= 9.11D-07 at cycle   7 NSaved=   7.
 NSaved= 7 IEnMin= 7 EnMin= -76.0605693254965     IErMin= 7 ErrMin= 9.11D-07
 ErrMax= 9.11D-07  0.00D+00 EMaxC= 1.00D-01 BMatC= 2.44D-11 BMatP= 8.16D-10
 IDIUse=1 WtCom= 1.00D+00 WtEn= 0.00D+00
 Coeff-Com:  0.295D-03-0.270D-02-0.303D-02 0.581D-01-0.161D-03-0.475D+00
 Coeff-Com:  0.142D+01
 Coeff:      0.295D-03-0.270D-02-0.303D-02 0.581D-01-0.161D-03-0.475D+00
 Coeff:      0.142D+01
 Gap=     0.540 Goal=   None    Shift=    0.000
 RMSDP=7.49D-08 MaxDP=1.60D-06 DE=-2.00D-09 OVMax= 5.32D-06

 Cycle   8  Pass 1  IDiag  1:
 E= -76.0605693255699     Delta-E=       -0.000000000073 Rises=F Damp=F
 DIIS: error= 1.73D-07 at cycle   8 NSaved=   8.
 NSaved= 8 IEnMin= 8 EnMin= -76.0605693255699     IErMin= 8 ErrMin= 1.73D-07
 ErrMax= 1.73D-07  0.00D+00 EMaxC= 1.00D-01 BMatC= 7.42D-13 BMatP= 2.44D-11
 IDIUse=1 WtCom= 1.00D+00 WtEn= 0.00D+00
 Coeff-Com: -0.496D-04 0.491D-03 0.379D-03-0.104D-01 0.124D-02 0.103D+00
 Coeff-Com: -0.442D+00 0.135D+01
 Coeff:     -0.496D-04 0.491D-03 0.379D-03-0.104D-01 0.124D-02 0.103D+00
 Coeff:     -0.442D+00 0.135D+01
 Gap=     0.540 Goal=   None    Shift=    0.000
 RMSDP=1.45D-08 MaxDP=3.03D-07 DE=-7.34D-11 OVMax= 9.51D-07

 Cycle   9  Pass 1  IDiag  1:
 E= -76.0605693255718     Delta-E=       -0.000000000002 Rises=F Damp=F
 DIIS: error= 2.14D-08 at cycle   9 NSaved=   9.
 NSaved= 9 IEnMin= 9 EnMin= -76.0605693255718     IErMin= 9 ErrMin= 2.14D-08
 ErrMax= 2.14D-08  0.00D+00 EMaxC= 1.00D-01 BMatC= 1.28D-14 BMatP= 7.42D-13
 IDIUse=1 WtCom= 1.00D+00 WtEn= 0.00D+00
 Coeff-Com: -0.387D-05 0.349D-04 0.163D-04-0.666D-03 0.269D-03 0.362D-02
 Coeff-Com: -0.403D-03-0.121D+00 0.112D+01
 Coeff:     -0.387D-05 0.349D-04 0.163D-04-0.666D-03 0.269D-03 0.362D-02
 Coeff:     -0.403D-03-0.121D+00 0.112D+01
 Gap=     0.540 Goal=   None    Shift=    0.000
 RMSDP=3.36D-09 MaxDP=7.94D-08 DE=-1.88D-12 OVMax= 8.65D-08

 SCF Done:  E(RHF) =  -76.0605693256     A.U. after    9 cycles
            NFock=  9  Conv=0.34D-08     -V/T= 2.0014
 KE= 7.595418558191D+01 PE=-1.989798740387D+02 EE= 3.778063788103D+01
 Leave Link  502 at Fri Oct 30 23:43:54 2015, MaxMem=    33554432 cpu:         4.5
 (Enter /group/hpc-share/gaussian/2009D/g09/l801.exe)
 ExpMin= 2.53D-02 ExpMax= 1.53D+04 ExpMxC= 5.22D+02 IAcc=3 IRadAn=         5 AccDes= 0.00D+00
 HarFok:  IExCor=  205 AccDes= 0.00D+00 IRadAn=         5 IDoV=-2 UseB2=F ITyADJ=14
 ICtDFT= 12500011 ScaDFX=  1.000000  1.000000  1.000000  1.000000
 Largest valence mixing into a core orbital is  1.11D-04
 Largest core mixing into a valence orbital is  1.71D-05
 Range of M.O.s used for correlation:     2    92
 NBasis=    92 NAE=     5 NBE=     5 NFC=     1 NFV=     0
 NROrb=     91 NOA=     4 NOB=     4 NVA=    87 NVB=    87

 **** Warning!!: The largest alpha MO coefficient is  0.16003842D+02

 Leave Link  801 at Fri Oct 30 23:43:54 2015, MaxMem=    33554432 cpu:         0.6
 (Enter /group/hpc-share/gaussian/2009D/g09/l906.exe)
 Frozen-core derivative calculation, NFC=   1 NFV=   0.
 FulOut=F Deriv=T AODrv=T NAtomX=     3
   MMem=          54  MDisk=           4 MDiskD=           4
  W3Min=       48300 MinDsk=      199415 NBas6D=         105
 NBas2D=        5790    NTT=        5565    LW2=     3500000
    MDV=    33439393 MDiskM=        1497 NBas2p=        5790
 Fully direct method using O(ONN) memory.
 IMap=   1   2   3   4   5
 JobTyp=1 Pass  1:  I=   2 to   5 NPSUse=  3 ParTrn=F ParDer=T DoDerP=T.
 Spin components of T(2) and E(2):
     alpha-alpha T2 =       0.8127464374D-02 E2=     -0.3257246076D-01
     alpha-beta  T2 =       0.4718602913D-01 E2=     -0.2032473026D+00
     beta-beta   T2 =       0.8127464374D-02 E2=     -0.3257246076D-01
 The integrals were generated   1 times.
 ANorm=    0.1031232737D+01
 E2 =    -0.2683922242D+00 EUMP2 =    -0.76328961549737D+02
 Leave Link  906 at Fri Oct 30 23:43:57 2015, MaxMem=    33554432 cpu:         6.8
 (Enter /group/hpc-share/gaussian/2009D/g09/l1002.exe)
 Minotr:  Closed shell wavefunction.
          Computing MP2/KS-MP2 derivatives.
          Using Z-Vector for PSCF gradient.
          Skipping F1 and S1 gradient terms here.
          IDoAtm=111
          Frozen-core window.
          Direct CPHF calculation.
          Differentiating once with respect to electric field.
                with respect to dipole field.
          Differentiating once with respect to nuclear coordinates.
          Using symmetry in CPHF.
          Requested convergence is 1.0D-10 RMS, and 1.0D-09 maximum.
          NewPWx=F KeepS1=T KeepF1=T KeepIn=T MapXYZ=F SortEE=F KeepMc=T.
          MDV=      33554307 using IRadAn=       0.
 Keep R1 ints in memory in symmetry-blocked form, NReq=13818934.
 FoFCou: FMM=F IPFlag=           0 FMFlag=           0 FMFlg1=           0
         NFxFlg=           0 DoJE=F BraDBF=F KetDBF=F FulRan=T
         wScrn=  0.000000 ICntrl=     600 IOpCl=  0 I1Cent=           0 NGrid=           0
         NMat0=    1 NMatS0=   4278 NMatT0=    0 NMatD0=    1 NMtDS0=    0 NMtDT0=    0
 Petite list used in FoFCou.
          Solving linear equations separately, MaxMat=       0.
          There are     1 degrees of freedom in the 1st order CPHF.  IDoFFX=0 NUNeed=     1.
 LinEq1:  Iter=  0 NonCon=     1 RMS=4.62D-03 Max=4.89D-02 NDo=     1
 AX will form     1 AO Fock derivatives at one time.
 LinEq1:  Iter=  1 NonCon=     1 RMS=6.23D-04 Max=4.75D-03 NDo=     1
 LinEq1:  Iter=  2 NonCon=     1 RMS=2.27D-04 Max=1.95D-03 NDo=     1
 LinEq1:  Iter=  3 NonCon=     1 RMS=6.10D-05 Max=4.58D-04 NDo=     1
 LinEq1:  Iter=  4 NonCon=     1 RMS=9.34D-06 Max=6.15D-05 NDo=     1
 LinEq1:  Iter=  5 NonCon=     1 RMS=1.61D-06 Max=1.11D-05 NDo=     1
 LinEq1:  Iter=  6 NonCon=     1 RMS=2.40D-07 Max=1.72D-06 NDo=     1
 LinEq1:  Iter=  7 NonCon=     1 RMS=2.72D-08 Max=2.34D-07 NDo=     1
 LinEq1:  Iter=  8 NonCon=     1 RMS=3.28D-09 Max=3.41D-08 NDo=     1
 LinEq1:  Iter=  9 NonCon=     1 RMS=3.20D-10 Max=2.11D-09 NDo=     1
 LinEq1:  Iter= 10 NonCon=     0 RMS=2.39D-11 Max=2.07D-10 NDo=     1
 Linear equations converged to 1.000D-10 1.000D-09 after    10 iterations.
 End of Minotr F.D. properties file   721 does not exist.
 End of Minotr F.D. properties file   722 does not exist.
 End of Minotr F.D. properties file   788 does not exist.
 Leave Link 1002 at Fri Oct 30 23:43:57 2015, MaxMem=    33554432 cpu:         4.6
 (Enter /group/hpc-share/gaussian/2009D/g09/l701.exe)
 Compute integral first derivatives.
 ... and contract with generalized density number  2.
 PrsmSu:  requested number of processors reduced to:   4 ShMem   1 Linda.
 Leave Link  701 at Fri Oct 30 23:43:57 2015, MaxMem=    33554432 cpu:         1.5
 (Enter /group/hpc-share/gaussian/2009D/g09/l702.exe)
 L702 exits ... SP integral derivatives will be done elsewhere.
 Leave Link  702 at Fri Oct 30 23:43:58 2015, MaxMem=    33554432 cpu:         0.2
 (Enter /group/hpc-share/gaussian/2009D/g09/l703.exe)
 Compute integral first derivatives, UseDBF=F ICtDFT=           0.
 Integral derivatives from FoFJK, PRISM(SPDF).
 Calling FoFJK, ICntrl=  10002127 FMM=F ISym2X=1 I1Cent= 0 IOpClX= 0 NMat=1 NMatS=1 NMatT=0.
 FoFJK:  IHMeth= 1 ICntrl=10002127 DoSepK=F KAlg= 0 I1Cent=   0 FoldK=F
 IRaf=         0 NMat=   1 IRICut=       1 DoRegI=T DoRafI=F ISym2E= 1.
 FoFCou: FMM=F IPFlag=           0 FMFlag=      100000 FMFlg1=         800
         NFxFlg=           0 DoJE=F BraDBF=F KetDBF=F FulRan=T
         wScrn=  0.000000 ICntrl=10002127 IOpCl=  0 I1Cent=           0 NGrid=           0
         NMat0=    1 NMatS0=      1 NMatT0=    0 NMatD0=    1 NMtDS0=    0 NMtDT0=    0
 Petite list used in FoFCou.
 Leave Link  703 at Fri Oct 30 23:43:58 2015, MaxMem=    33554432 cpu:         4.9
 (Enter /group/hpc-share/gaussian/2009D/g09/l716.exe)
 Dipole        = 1.11114449D-06-7.26044092D-01-1.44090674D-33
 ***** Axes restored to original set *****
 -------------------------------------------------------------------
 Center     Atomic                   Forces (Hartrees/Bohr)
 Number     Number              X              Y              Z
 -------------------------------------------------------------------
      1        8          -0.004134836    0.000000000   -0.002935414
      2        1           0.001172076    0.000000000    0.002736594
      3        1           0.002962759    0.000000000    0.000198820
 -------------------------------------------------------------------
 Cartesian Forces:  Max     0.004134836 RMS     0.002195797
 Leave Link  716 at Fri Oct 30 23:43:58 2015, MaxMem=    33554432 cpu:         0.2
 (Enter /group/hpc-share/gaussian/2009D/g09/l103.exe)

 GradGradGradGradGradGradGradGradGradGradGradGradGradGradGradGradGradGrad
 Berny optimization.
 Using GEDIIS/GDIIS optimizer.
 FormGI is forming the generalized inverse of G from B-inverse, IUseBI=4.
 Internal  Forces:  Max     0.002780070 RMS     0.002525212
 Search for a local minimum.
 Step number   2 out of a maximum of   20
 All quantities printed in internal units (Hartrees-Bohrs-Radians)
 RMS Force = .25252D-02 SwitMx=.10000D-02 MixMth= 1
 Mixed Optimization -- RFO/linear search
 Update second derivatives using D2CorX and points    1    2
 DE= -8.33D-04 DEPred=-7.08D-04 R= 1.18D+00
 TightC=F SS=  1.41D+00  RLast= 8.32D-02 DXNew= 5.0454D-01 2.4951D-01
 Trust test= 1.18D+00 RLast= 8.32D-02 DXMaxT set to 3.00D-01
 The second derivative matrix:
                          R1        R2        A1
           R1           0.55442
           R2          -0.02748   0.55284
           A1           0.02162   0.02278   0.14724
 ITU=  1  0
 Use linear search instead of GDIIS.
     Eigenvalues ---    0.14465   0.52872   0.58113
 RFO step:  Lambda=-5.68611281D-06 EMin= 1.44650123D-01
 Quartic linear search produced a step of  0.21641.
 Iteration  1 RMS(Cart)=  0.00713848 RMS(Int)=  0.00004735
 Iteration  2 RMS(Cart)=  0.00005209 RMS(Int)=  0.00000000
 Iteration  3 RMS(Cart)=  0.00000000 RMS(Int)=  0.00000000
 ITry= 1 IFail=0 DXMaxC= 7.62D-03 DCOld= 1.00D+10 DXMaxT= 3.00D-01 DXLimC= 3.00D+00 Rises=F
 ClnCor:  largest displacement from symmetrization is 9.49D-16 for atom     3.
 Variable       Old X    -DE/DX   Delta X   Delta X   Delta X     New X
                                 (Linear)    (Quad)   (Total)
    R1        1.81071   0.00278   0.00457   0.00127   0.00585   1.81655
    R2        1.81072   0.00277   0.00335   0.00253   0.00588   1.81660
    A1        1.83170  -0.00193  -0.01708   0.00258  -0.01451   1.81719
         Item               Value     Threshold  Converged?
 Maximum Force            0.002780     0.000450     NO 
 RMS     Force            0.002525     0.000300     NO 
 Maximum Displacement     0.007621     0.001800     NO 
 RMS     Displacement     0.007161     0.001200     NO 
 Predicted change in Energy=-3.072060D-05
 Lowest energy point so far.  Saving SCF results.
 GradGradGradGradGradGradGradGradGradGradGradGradGradGradGradGradGradGrad

 Leave Link  103 at Fri Oct 30 23:43:58 2015, MaxMem=    33554432 cpu:         0.0
 (Enter /group/hpc-share/gaussian/2009D/g09/l202.exe)
                          Input orientation:                          
 ---------------------------------------------------------------------
 Center     Atomic      Atomic             Coordinates (Angstroms)
 Number     Number       Type             X           Y           Z
 ---------------------------------------------------------------------
      1          8           0       -0.023041    0.000000   -0.017572
      2          1           0        0.021281    0.000000    0.942683
      3          1           0        0.897429    0.000000   -0.294778
 ---------------------------------------------------------------------
                    Distance matrix (angstroms):
                    1          2          3
     1  O    0.000000
     2  H    0.961278   0.000000
     3  H    0.961305   1.516227   0.000000
 Stoichiometry    H2O
 Framework group  CS[SG(H2O)]
 Deg. of freedom     3
 Full point group                 CS      NOp   2
 RotChk:  IX=0 Diff= 2.49D-05
 Largest Abelian subgroup         CS      NOp   2
 Largest concise Abelian subgroup C1      NOp   1
                         Standard orientation:                         
 ---------------------------------------------------------------------
 Center     Atomic      Atomic             Coordinates (Angstroms)
 Number     Number       Type             X           Y           Z
 ---------------------------------------------------------------------
      1          8           0        0.000000    0.118211    0.000000
      2          1           0        0.758114   -0.472821    0.000000
      3          1           0       -0.758114   -0.472865    0.000000
 ---------------------------------------------------------------------
 Rotational constants (GHZ):    808.1524182    436.2479920    283.3130452
 Leave Link  202 at Fri Oct 30 23:43:58 2015, MaxMem=    33554432 cpu:         0.0
 (Enter /group/hpc-share/gaussian/2009D/g09/l301.exe)
 Standard basis: Aug-CC-pVTZ (5D, 7F)
 Ernie: Thresh=  0.10000D-02 Tol=  0.10000D-05 Strict=F.
 Ernie:  3 primitive shells out of 52 were deleted.
 There are    73 symmetry adapted cartesian basis functions of A'  symmetry.
 There are    32 symmetry adapted cartesian basis functions of A"  symmetry.
 There are    62 symmetry adapted basis functions of A'  symmetry.
 There are    30 symmetry adapted basis functions of A"  symmetry.
    92 basis functions,   126 primitive gaussians,   105 cartesian basis functions
     5 alpha electrons        5 beta electrons
       nuclear repulsion energy         9.1567817379 Hartrees.
 IExCor=    0 DFT=F Ex=HF Corr=None ExCW=0 ScaHFX=  1.000000
 ScaDFX=  1.000000  1.000000  1.000000  1.000000 ScalE2=  1.000000  1.000000
 IRadAn=      0 IRanWt=     -1 IRanGd=            0 ICorTp=0 IEmpDi=  4
 NAtoms=    3 NActive=    3 NUniq=    3 SFac= 1.00D+00 NAtFMM=   60 NAOKFM=F Big=F
 Integral buffers will be    131072 words long.
 Raffenetti 1 integral format.
 Two-electron integral symmetry is turned on.
 Leave Link  301 at Fri Oct 30 23:43:58 2015, MaxMem=    33554432 cpu:         0.4
 (Enter /group/hpc-share/gaussian/2009D/g09/l302.exe)
 NPDir=0 NMtPBC=     1 NCelOv=     1 NCel=       1 NClECP=     1 NCelD=      1
         NCelK=      1 NCelE2=     1 NClLst=     1 CellRange=     0.0.
 One-electron integrals computed using PRISM.
 PrsmSu:  requested number of processors reduced to:   4 ShMem   1 Linda.
 NBasis=    92 RedAO= T EigKep=  5.50D-04  NBF=    62    30
 NBsUse=    92 1.00D-06 EigRej= -1.00D+00 NBFU=    62    30
 Leave Link  302 at Fri Oct 30 23:43:59 2015, MaxMem=    33554432 cpu:         1.6
 (Enter /group/hpc-share/gaussian/2009D/g09/l303.exe)
 DipDrv:  MaxL=1.
 Leave Link  303 at Fri Oct 30 23:43:59 2015, MaxMem=    33554432 cpu:         0.2
 (Enter /group/hpc-share/gaussian/2009D/g09/l401.exe)
 Initial guess from the checkpoint file:  "water.chk"
 B after Tr=     0.000000    0.000000    0.000000
         Rot=    1.000000    0.000000    0.000000   -0.000007 Ang=   0.00 deg.
 Guess basis will be translated and rotated to current coordinates.
 JPrj=2 DoOrth=T DoCkMO=T.
 Initial guess orbital symmetries:
       Occupied  (A') (A') (A') (A') (A")
       Virtual   (A') (A') (A') (A') (A') (A') (A') (A') (A') (A')
                 (A') (A') (A') (A') (A') (A') (A') (A') (A') (A')
                 (A') (A') (A') (A') (A') (A') (A') (A') (A') (A')
                 (A') (A') (A') (A') (A') (A') (A') (A') (A') (A')
                 (A') (A') (A') (A') (A') (A') (A') (A') (A') (A')
                 (A') (A') (A') (A') (A') (A') (A') (A') (A") (A")
                 (A") (A") (A") (A") (A") (A") (A") (A") (A") (A")
                 (A") (A") (A") (A") (A") (A") (A") (A") (A") (A")
                 (A") (A") (A") (A") (A") (A") (A")
 The electronic state of the initial guess is 1-A'.
 Leave Link  401 at Fri Oct 30 23:43:59 2015, MaxMem=    33554432 cpu:         0.6
 (Enter /group/hpc-share/gaussian/2009D/g09/l502.exe)
 Closed shell SCF:
 Using DIIS extrapolation, IDIIS=  1040.
 Integral symmetry usage will be decided dynamically.
 Keep R1 ints in memory in symmetry-blocked form, NReq=13871187.
 IVT=       53261 IEndB=       53261 NGot=    33554432 MDV=    28836119
 LenX=    28836119 LenY=    28824653
 Requested convergence on RMS density matrix=1.00D-08 within 128 cycles.
 Requested convergence on MAX density matrix=1.00D-06.
 Requested convergence on             energy=1.00D-06.
 No special actions if energy rises.
 FoFCou: FMM=F IPFlag=           0 FMFlag=           0 FMFlg1=           0
         NFxFlg=           0 DoJE=F BraDBF=F KetDBF=F FulRan=T
         wScrn=  0.000000 ICntrl=     600 IOpCl=  0 I1Cent=           0 NGrid=           0
         NMat0=    1 NMatS0=   4278 NMatT0=    0 NMatD0=    1 NMtDS0=    0 NMtDT0=    0
 Petite list used in FoFCou.

 Cycle   1  Pass 1  IDiag  1:
 E= -76.0602707408077    
 DIIS: error= 7.51D-04 at cycle   1 NSaved=   1.
 NSaved= 1 IEnMin= 1 EnMin= -76.0602707408077     IErMin= 1 ErrMin= 7.51D-04
 ErrMax= 7.51D-04  0.00D+00 EMaxC= 1.00D-01 BMatC= 2.05D-05 BMatP= 2.05D-05
 IDIUse=3 WtCom= 9.92D-01 WtEn= 7.51D-03
 Coeff-Com:  0.100D+01
 Coeff-En:   0.100D+01
 Coeff:      0.100D+01
 Gap=     0.821 Goal=   None    Shift=    0.000
 RMSDP=4.51D-05 MaxDP=9.34D-04              OVMax= 1.44D-03

 Cycle   2  Pass 1  IDiag  1:
 E= -76.0602875692134     Delta-E=       -0.000016828406 Rises=F Damp=F
 DIIS: error= 1.11D-04 at cycle   2 NSaved=   2.
 NSaved= 2 IEnMin= 2 EnMin= -76.0602875692134     IErMin= 2 ErrMin= 1.11D-04
 ErrMax= 1.11D-04  0.00D+00 EMaxC= 1.00D-01 BMatC= 9.84D-07 BMatP= 2.05D-05
 IDIUse=3 WtCom= 9.99D-01 WtEn= 1.11D-03
 Coeff-Com: -0.105D+00 0.111D+01
 Coeff-En:   0.000D+00 0.100D+01
 Coeff:     -0.105D+00 0.110D+01
 Gap=     0.540 Goal=   None    Shift=    0.000
 RMSDP=1.06D-05 MaxDP=2.08D-04 DE=-1.68D-05 OVMax= 5.07D-04

 Cycle   3  Pass 1  IDiag  1:
 E= -76.0602887144768     Delta-E=       -0.000001145263 Rises=F Damp=F
 DIIS: error= 6.18D-05 at cycle   3 NSaved=   3.
 NSaved= 3 IEnMin= 3 EnMin= -76.0602887144768     IErMin= 3 ErrMin= 6.18D-05
 ErrMax= 6.18D-05  0.00D+00 EMaxC= 1.00D-01 BMatC= 1.10D-07 BMatP= 9.84D-07
 IDIUse=1 WtCom= 1.00D+00 WtEn= 0.00D+00
 Coeff-Com: -0.450D-01 0.167D+00 0.878D+00
 Coeff:     -0.450D-01 0.167D+00 0.878D+00
 Gap=     0.539 Goal=   None    Shift=    0.000
 RMSDP=3.25D-06 MaxDP=8.10D-05 DE=-1.15D-06 OVMax= 1.66D-04

 Cycle   4  Pass 1  IDiag  1:
 E= -76.0602888364682     Delta-E=       -0.000000121991 Rises=F Damp=F
 DIIS: error= 2.56D-05 at cycle   4 NSaved=   4.
 NSaved= 4 IEnMin= 4 EnMin= -76.0602888364682     IErMin= 4 ErrMin= 2.56D-05
 ErrMax= 2.56D-05  0.00D+00 EMaxC= 1.00D-01 BMatC= 1.79D-08 BMatP= 1.10D-07
 IDIUse=1 WtCom= 1.00D+00 WtEn= 0.00D+00
 Coeff-Com:  0.344D-02-0.911D-01 0.186D+00 0.902D+00
 Coeff:      0.344D-02-0.911D-01 0.186D+00 0.902D+00
 Gap=     0.540 Goal=   None    Shift=    0.000
 RMSDP=1.26D-06 MaxDP=2.59D-05 DE=-1.22D-07 OVMax= 7.42D-05

 Cycle   5  Pass 1  IDiag  1:
 E= -76.0602888585560     Delta-E=       -0.000000022088 Rises=F Damp=F
 DIIS: error= 5.14D-06 at cycle   5 NSaved=   5.
 NSaved= 5 IEnMin= 5 EnMin= -76.0602888585560     IErMin= 5 ErrMin= 5.14D-06
 ErrMax= 5.14D-06  0.00D+00 EMaxC= 1.00D-01 BMatC= 7.90D-10 BMatP= 1.79D-08
 IDIUse=1 WtCom= 1.00D+00 WtEn= 0.00D+00
 Coeff-Com:  0.323D-02-0.153D-01-0.758D-01-0.303D-01 0.112D+01
 Coeff:      0.323D-02-0.153D-01-0.758D-01-0.303D-01 0.112D+01
 Gap=     0.540 Goal=   None    Shift=    0.000
 RMSDP=5.68D-07 MaxDP=1.79D-05 DE=-2.21D-08 OVMax= 3.23D-05

 Cycle   6  Pass 1  IDiag  1:
 E= -76.0602888605972     Delta-E=       -0.000000002041 Rises=F Damp=F
 DIIS: error= 1.11D-06 at cycle   6 NSaved=   6.
 NSaved= 6 IEnMin= 6 EnMin= -76.0602888605972     IErMin= 6 ErrMin= 1.11D-06
 ErrMax= 1.11D-06  0.00D+00 EMaxC= 1.00D-01 BMatC= 4.01D-11 BMatP= 7.90D-10
 IDIUse=1 WtCom= 1.00D+00 WtEn= 0.00D+00
 Coeff-Com: -0.114D-02 0.875D-02 0.181D-01-0.272D-01-0.397D+00 0.140D+01
 Coeff:     -0.114D-02 0.875D-02 0.181D-01-0.272D-01-0.397D+00 0.140D+01
 Gap=     0.540 Goal=   None    Shift=    0.000
 RMSDP=1.07D-07 MaxDP=2.70D-06 DE=-2.04D-09 OVMax= 7.95D-06

 Cycle   7  Pass 1  IDiag  1:
 E= -76.0602888607260     Delta-E=       -0.000000000129 Rises=F Damp=F
 DIIS: error= 2.03D-07 at cycle   7 NSaved=   7.
 NSaved= 7 IEnMin= 7 EnMin= -76.0602888607260     IErMin= 7 ErrMin= 2.03D-07
 ErrMax= 2.03D-07  0.00D+00 EMaxC= 1.00D-01 BMatC= 1.31D-12 BMatP= 4.01D-11
 IDIUse=1 WtCom= 1.00D+00 WtEn= 0.00D+00
 Coeff-Com:  0.314D-03-0.257D-02-0.518D-02 0.828D-02 0.125D+00-0.546D+00
 Coeff-Com:  0.142D+01
 Coeff:      0.314D-03-0.257D-02-0.518D-02 0.828D-02 0.125D+00-0.546D+00
 Coeff:      0.142D+01
 Gap=     0.540 Goal=   None    Shift=    0.000
 RMSDP=1.82D-08 MaxDP=4.18D-07 DE=-1.29D-10 OVMax= 1.23D-06

 Cycle   8  Pass 1  IDiag  1:
 E= -76.0602888607299     Delta-E=       -0.000000000004 Rises=F Damp=F
 DIIS: error= 3.59D-08 at cycle   8 NSaved=   8.
 NSaved= 8 IEnMin= 8 EnMin= -76.0602888607299     IErMin= 8 ErrMin= 3.59D-08
 ErrMax= 3.59D-08  0.00D+00 EMaxC= 1.00D-01 BMatC= 3.13D-14 BMatP= 1.31D-12
 IDIUse=1 WtCom= 1.00D+00 WtEn= 0.00D+00
 Coeff-Com: -0.630D-04 0.558D-03 0.945D-03-0.168D-02-0.265D-01 0.132D+00
 Coeff-Com: -0.462D+00 0.136D+01
 Coeff:     -0.630D-04 0.558D-03 0.945D-03-0.168D-02-0.265D-01 0.132D+00
 Coeff:     -0.462D+00 0.136D+01
 Gap=     0.540 Goal=   None    Shift=    0.000
 RMSDP=3.50D-09 MaxDP=8.48D-08 DE=-3.95D-12 OVMax= 2.05D-07

 SCF Done:  E(RHF) =  -76.0602888607     A.U. after    8 cycles
            NFock=  8  Conv=0.35D-08     -V/T= 2.0015
 KE= 7.594340101366D+01 PE=-1.989178813502D+02 EE= 3.775740973793D+01
 Leave Link  502 at Fri Oct 30 23:44:00 2015, MaxMem=    33554432 cpu:         4.3
 (Enter /group/hpc-share/gaussian/2009D/g09/l801.exe)
 ExpMin= 2.53D-02 ExpMax= 1.53D+04 ExpMxC= 5.22D+02 IAcc=3 IRadAn=         5 AccDes= 0.00D+00
 HarFok:  IExCor=  205 AccDes= 0.00D+00 IRadAn=         5 IDoV=-2 UseB2=F ITyADJ=14
 ICtDFT= 12500011 ScaDFX=  1.000000  1.000000  1.000000  1.000000
 DSYEVD-2 returned Info=          93 IAlg= 4 N=    46 NDim=    46 NE2=      728682 trying  DSYEV.
 Largest valence mixing into a core orbital is  1.11D-04
 Largest core mixing into a valence orbital is  1.72D-05
 Range of M.O.s used for correlation:     2    92
 NBasis=    92 NAE=     5 NBE=     5 NFC=     1 NFV=     0
 NROrb=     91 NOA=     4 NOB=     4 NVA=    87 NVB=    87

 **** Warning!!: The largest alpha MO coefficient is  0.15877951D+02

 Leave Link  801 at Fri Oct 30 23:44:00 2015, MaxMem=    33554432 cpu:         0.6
 (Enter /group/hpc-share/gaussian/2009D/g09/l906.exe)
 Frozen-core derivative calculation, NFC=   1 NFV=   0.
 FulOut=F Deriv=T AODrv=T NAtomX=     3
   MMem=          54  MDisk=           4 MDiskD=           4
  W3Min=       48300 MinDsk=      199415 NBas6D=         105
 NBas2D=        5790    NTT=        5565    LW2=     3500000
    MDV=    33439393 MDiskM=        1497 NBas2p=        5790
 Fully direct method using O(ONN) memory.
 IMap=   1   2   3   4   5
 JobTyp=1 Pass  1:  I=   2 to   5 NPSUse=  3 ParTrn=F ParDer=T DoDerP=T.
 Spin components of T(2) and E(2):
     alpha-alpha T2 =       0.8158038029D-02 E2=     -0.3260930497D-01
     alpha-beta  T2 =       0.4737977696D-01 E2=     -0.2034848415D+00
     beta-beta   T2 =       0.8158038029D-02 E2=     -0.3260930497D-01
 The integrals were generated   1 times.
 ANorm=    0.1031356317D+01
 E2 =    -0.2687034514D+00 EUMP2 =    -0.76328992312120D+02
 Leave Link  906 at Fri Oct 30 23:44:02 2015, MaxMem=    33554432 cpu:         6.9
 (Enter /group/hpc-share/gaussian/2009D/g09/l1002.exe)
 Minotr:  Closed shell wavefunction.
          Computing MP2/KS-MP2 derivatives.
          Using Z-Vector for PSCF gradient.
          Skipping F1 and S1 gradient terms here.
          IDoAtm=111
          Frozen-core window.
          Direct CPHF calculation.
          Differentiating once with respect to electric field.
                with respect to dipole field.
          Differentiating once with respect to nuclear coordinates.
          Using symmetry in CPHF.
          Requested convergence is 1.0D-10 RMS, and 1.0D-09 maximum.
          NewPWx=F KeepS1=T KeepF1=T KeepIn=T MapXYZ=F SortEE=F KeepMc=T.
          MDV=      33554307 using IRadAn=       0.
 Keep R1 ints in memory in symmetry-blocked form, NReq=13818934.
 FoFCou: FMM=F IPFlag=           0 FMFlag=           0 FMFlg1=           0
         NFxFlg=           0 DoJE=F BraDBF=F KetDBF=F FulRan=T
         wScrn=  0.000000 ICntrl=     600 IOpCl=  0 I1Cent=           0 NGrid=           0
         NMat0=    1 NMatS0=   4278 NMatT0=    0 NMatD0=    1 NMtDS0=    0 NMtDT0=    0
 Petite list used in FoFCou.
          Solving linear equations separately, MaxMat=       0.
          There are     1 degrees of freedom in the 1st order CPHF.  IDoFFX=0 NUNeed=     1.
 LinEq1:  Iter=  0 NonCon=     1 RMS=4.65D-03 Max=4.92D-02 NDo=     1
 AX will form     1 AO Fock derivatives at one time.
 LinEq1:  Iter=  1 NonCon=     1 RMS=6.30D-04 Max=4.82D-03 NDo=     1
 LinEq1:  Iter=  2 NonCon=     1 RMS=2.30D-04 Max=1.98D-03 NDo=     1
 LinEq1:  Iter=  3 NonCon=     1 RMS=6.19D-05 Max=4.64D-04 NDo=     1
 LinEq1:  Iter=  4 NonCon=     1 RMS=9.50D-06 Max=6.35D-05 NDo=     1
 LinEq1:  Iter=  5 NonCon=     1 RMS=1.61D-06 Max=1.10D-05 NDo=     1
 LinEq1:  Iter=  6 NonCon=     1 RMS=2.42D-07 Max=1.75D-06 NDo=     1
 LinEq1:  Iter=  7 NonCon=     1 RMS=2.77D-08 Max=2.37D-07 NDo=     1
 LinEq1:  Iter=  8 NonCon=     1 RMS=3.32D-09 Max=3.46D-08 NDo=     1
 LinEq1:  Iter=  9 NonCon=     1 RMS=3.24D-10 Max=2.14D-09 NDo=     1
 LinEq1:  Iter= 10 NonCon=     0 RMS=2.44D-11 Max=2.14D-10 NDo=     1
 Linear equations converged to 1.000D-10 1.000D-09 after    10 iterations.
 End of Minotr F.D. properties file   721 does not exist.
 End of Minotr F.D. properties file   722 does not exist.
 End of Minotr F.D. properties file   788 does not exist.
 Leave Link 1002 at Fri Oct 30 23:44:03 2015, MaxMem=    33554432 cpu:         4.9
 (Enter /group/hpc-share/gaussian/2009D/g09/l701.exe)
 Compute integral first derivatives.
 ... and contract with generalized density number  2.
 PrsmSu:  requested number of processors reduced to:   4 ShMem   1 Linda.
 Leave Link  701 at Fri Oct 30 23:44:03 2015, MaxMem=    33554432 cpu:         1.5
 (Enter /group/hpc-share/gaussian/2009D/g09/l702.exe)
 L702 exits ... SP integral derivatives will be done elsewhere.
 Leave Link  702 at Fri Oct 30 23:44:03 2015, MaxMem=    33554432 cpu:         0.2
 (Enter /group/hpc-share/gaussian/2009D/g09/l703.exe)
 Compute integral first derivatives, UseDBF=F ICtDFT=           0.
 Integral derivatives from FoFJK, PRISM(SPDF).
 Calling FoFJK, ICntrl=  10002127 FMM=F ISym2X=1 I1Cent= 0 IOpClX= 0 NMat=1 NMatS=1 NMatT=0.
 FoFJK:  IHMeth= 1 ICntrl=10002127 DoSepK=F KAlg= 0 I1Cent=   0 FoldK=F
 IRaf=         0 NMat=   1 IRICut=       1 DoRegI=T DoRafI=F ISym2E= 1.
 FoFCou: FMM=F IPFlag=           0 FMFlag=      100000 FMFlg1=         800
         NFxFlg=           0 DoJE=F BraDBF=F KetDBF=F FulRan=T
         wScrn=  0.000000 ICntrl=10002127 IOpCl=  0 I1Cent=           0 NGrid=           0
         NMat0=    1 NMatS0=      1 NMatT0=    0 NMatD0=    1 NMtDS0=    0 NMtDT0=    0
 Petite list used in FoFCou.
 Leave Link  703 at Fri Oct 30 23:44:04 2015, MaxMem=    33554432 cpu:         5.1
 (Enter /group/hpc-share/gaussian/2009D/g09/l716.exe)
 Dipole        = 4.10932849D-06-7.31492975D-01-7.52909001D-32
 ***** Axes restored to original set *****
 -------------------------------------------------------------------
 Center     Atomic                   Forces (Hartrees/Bohr)
 Number     Number              X              Y              Z
 -------------------------------------------------------------------
      1        8          -0.000071851    0.000000000   -0.000078446
      2        1           0.000011524    0.000000000    0.000088871
      3        1           0.000060327    0.000000000   -0.000010425
 -------------------------------------------------------------------
 Cartesian Forces:  Max     0.000088871 RMS     0.000050657
 Leave Link  716 at Fri Oct 30 23:44:04 2015, MaxMem=    33554432 cpu:         0.2
 (Enter /group/hpc-share/gaussian/2009D/g09/l103.exe)

 GradGradGradGradGradGradGradGradGradGradGradGradGradGradGradGradGradGrad
 Berny optimization.
 Using GEDIIS/GDIIS optimizer.
 FormGI is forming the generalized inverse of G from B-inverse, IUseBI=4.
 Internal  Forces:  Max     0.000089308 RMS     0.000062850
 Search for a local minimum.
 Step number   3 out of a maximum of   20
 All quantities printed in internal units (Hartrees-Bohrs-Radians)
 RMS Force = .62850D-04 SwitMx=.10000D-02 MixMth= 2
 Mixed Optimization -- En-DIIS/RFO-DIIS
 Update second derivatives using D2CorX and points    1    2    3
 DE= -3.08D-05 DEPred=-3.07D-05 R= 1.00D+00
 TightC=F SS=  1.41D+00  RLast= 1.67D-02 DXNew= 5.0454D-01 5.0131D-02
 Trust test= 1.00D+00 RLast= 1.67D-02 DXMaxT set to 3.00D-01
 The second derivative matrix:
                          R1        R2        A1
           R1           0.54804
           R2          -0.03264   0.54882
           A1           0.02214   0.02255   0.15006
 ITU=  1  1  0
 Use linear search instead of GDIIS.
     Eigenvalues ---    0.14735   0.51850   0.58107
 RFO step:  Lambda= 0.00000000D+00 EMin= 1.47347049D-01
 Quartic linear search produced a step of  0.01816.
 Iteration  1 RMS(Cart)=  0.00009765 RMS(Int)=  0.00000001
 Iteration  2 RMS(Cart)=  0.00000001 RMS(Int)=  0.00000000
 ITry= 1 IFail=0 DXMaxC= 9.39D-05 DCOld= 1.00D+10 DXMaxT= 3.00D-01 DXLimC= 3.00D+00 Rises=F
 ClnCor:  largest displacement from symmetrization is 4.97D-16 for atom     3.
 Variable       Old X    -DE/DX   Delta X   Delta X   Delta X     New X
                                 (Linear)    (Quad)   (Total)
    R1        1.81655   0.00009   0.00011   0.00007   0.00018   1.81673
    R2        1.81660   0.00006   0.00011   0.00002   0.00013   1.81673
    A1        1.81719  -0.00001  -0.00026   0.00013  -0.00014   1.81705
         Item               Value     Threshold  Converged?
 Maximum Force            0.000089     0.000450     YES
 RMS     Force            0.000063     0.000300     YES
 Maximum Displacement     0.000094     0.001800     YES
 RMS     Displacement     0.000098     0.001200     YES
 Predicted change in Energy=-1.261494D-08
 Optimization completed.
    -- Stationary point found.
                           ----------------------------
                           !   Optimized Parameters   !
                           ! (Angstroms and Degrees)  !
 --------------------------                            --------------------------
 ! Name  Definition              Value          Derivative Info.                !
 --------------------------------------------------------------------------------
 ! R1    R(1,2)                  0.9613         -DE/DX =    0.0001              !
 ! R2    R(1,3)                  0.9613         -DE/DX =    0.0001              !
 ! A1    A(2,1,3)              104.1174         -DE/DX =    0.0                 !
 --------------------------------------------------------------------------------
 Lowest energy point so far.  Saving SCF results.
 GradGradGradGradGradGradGradGradGradGradGradGradGradGradGradGradGradGrad

 Largest change from initial coordinates is atom    2       0.036 Angstoms.
 Leave Link  103 at Fri Oct 30 23:44:04 2015, MaxMem=    33554432 cpu:         0.0
 (Enter /group/hpc-share/gaussian/2009D/g09/l202.exe)
                          Input orientation:                          
 ---------------------------------------------------------------------
 Center     Atomic      Atomic             Coordinates (Angstroms)
 Number     Number       Type             X           Y           Z
 ---------------------------------------------------------------------
      1          8           0       -0.023041    0.000000   -0.017572
      2          1           0        0.021281    0.000000    0.942683
      3          1           0        0.897429    0.000000   -0.294778
 ---------------------------------------------------------------------
                    Distance matrix (angstroms):
                    1          2          3
     1  O    0.000000
     2  H    0.961278   0.000000
     3  H    0.961305   1.516227   0.000000
 Stoichiometry    H2O
 Framework group  CS[SG(H2O)]
 Deg. of freedom     3
 Full point group                 CS      NOp   2
 RotChk:  IX=0 Diff= 3.40D-16
 Largest Abelian subgroup         CS      NOp   2
 Largest concise Abelian subgroup C1      NOp   1
                         Standard orientation:                         
 ---------------------------------------------------------------------
 Center     Atomic      Atomic             Coordinates (Angstroms)
 Number     Number       Type             X           Y           Z
 ---------------------------------------------------------------------
      1          8           0        0.000000    0.118211    0.000000
      2          1           0        0.758114   -0.472821    0.000000
      3          1           0       -0.758114   -0.472865    0.000000
 ---------------------------------------------------------------------
 Rotational constants (GHZ):    808.1524182    436.2479920    283.3130452
 Leave Link  202 at Fri Oct 30 23:44:04 2015, MaxMem=    33554432 cpu:         0.0
 (Enter /group/hpc-share/gaussian/2009D/g09/l601.exe)
 Copying SCF densities to generalized density rwf, IOpCl= 0 IROHF=0.

 **********************************************************************

            Population analysis using the SCF density.

 **********************************************************************

 Orbital symmetries:
       Occupied  (A') (A') (A') (A') (A")
       Virtual   (A') (A') (A') (A") (A') (A') (A') (A') (A") (A")
                 (A') (A') (A') (A') (A') (A') (A') (A") (A") (A')
                 (A") (A') (A') (A") (A") (A') (A') (A') (A') (A")
                 (A') (A") (A') (A') (A") (A') (A") (A') (A') (A')
                 (A') (A") (A") (A') (A') (A") (A') (A') (A') (A")
                 (A') (A') (A") (A') (A') (A") (A") (A') (A') (A")
                 (A') (A") (A") (A') (A') (A') (A") (A') (A') (A')
                 (A") (A') (A') (A') (A") (A') (A") (A") (A') (A")
                 (A') (A") (A') (A') (A') (A') (A')
 The electronic state is 1-A'.
 Alpha  occ. eigenvalues --  -20.56808  -1.35180  -0.71486  -0.58495  -0.51014
 Alpha virt. eigenvalues --    0.02937   0.04769   0.13589   0.15878   0.17516
 Alpha virt. eigenvalues --    0.18308   0.22713   0.24492   0.26539   0.30002
 Alpha virt. eigenvalues --    0.31014   0.36578   0.43734   0.46604   0.59919
 Alpha virt. eigenvalues --    0.65846   0.70796   0.72264   0.73166   0.83052
 Alpha virt. eigenvalues --    0.84632   0.89218   0.91248   0.91826   0.92236
 Alpha virt. eigenvalues --    0.93078   0.96138   1.02085   1.04309   1.08250
 Alpha virt. eigenvalues --    1.10842   1.17615   1.18180   1.26099   1.51006
 Alpha virt. eigenvalues --    1.53508   1.58259   1.80526   1.82024   1.98390
 Alpha virt. eigenvalues --    2.11720   2.26259   2.31563   2.32672   2.41819
 Alpha virt. eigenvalues --    2.42049   2.44302   2.47951   2.67726   2.69801
 Alpha virt. eigenvalues --    2.77067   2.81540   2.88383   3.65210   3.74087
 Alpha virt. eigenvalues --    4.01745   4.08253   4.16348   4.24679   4.28696
 Alpha virt. eigenvalues --    4.37415   4.37702   4.40447   4.51697   4.72426
 Alpha virt. eigenvalues --    4.84209   5.14742   5.14758   5.24920   5.32197
 Alpha virt. eigenvalues --    5.52033   5.66159   6.17674   6.51308   6.70882
 Alpha virt. eigenvalues --    6.89703   7.13113   7.25092   7.29856   7.31124
 Alpha virt. eigenvalues --    7.32815   7.35421   7.53014   7.89593   7.92129
 Alpha virt. eigenvalues --    8.79874  15.70623
          Condensed to atoms (all electrons):
               1          2          3
     1  O    7.904080   0.270310   0.270311
     2  H    0.270310   0.487750   0.019602
     3  H    0.270311   0.019602   0.487725
 Mulliken charges:
               1
     1  O   -0.444701
     2  H    0.222338
     3  H    0.222362
 Sum of Mulliken charges =   0.00000
 Mulliken charges with hydrogens summed into heavy atoms:
               1
     1  O    0.000000
 Electronic spatial extent (au):  <R**2>=             19.5242
 Charge=              0.0000 electrons
 Dipole moment (field-independent basis, Debye):
    X=              0.0000    Y=             -1.9924    Z=              0.0000  Tot=              1.9924
 Quadrupole moment (field-independent basis, Debye-Ang):
   XX=             -4.2534   YY=             -6.2347   ZZ=             -7.5667
   XY=              0.0001   XZ=              0.0000   YZ=              0.0000
 Traceless Quadrupole moment (field-independent basis, Debye-Ang):
   XX=              1.7648   YY=             -0.2164   ZZ=             -1.5484
   XY=              0.0001   XZ=              0.0000   YZ=              0.0000
 Octapole moment (field-independent basis, Debye-Ang**2):
  XXX=              0.0000  YYY=             -1.1473  ZZZ=              0.0000  XYY=             -0.0001
  XXY=             -1.4154  XXZ=              0.0000  XZZ=              0.0000  YZZ=             -0.2526
  YYZ=              0.0000  XYZ=              0.0000
 Hexadecapole moment (field-independent basis, Debye-Ang**3):
 XXXX=             -5.9948 YYYY=             -7.2678 ZZZZ=             -6.7389 XXXY=              0.0000
 XXXZ=              0.0000 YYYX=              0.0000 YYYZ=              0.0000 ZZZX=              0.0000
 ZZZY=              0.0000 XXYY=             -1.8527 XXZZ=             -2.4518 YYZZ=             -2.3858
 XXYZ=              0.0000 YYXZ=              0.0000 ZZXY=              0.0000
 N-N= 9.156781737916D+00 E-N=-1.989178811541D+02  KE= 7.594340101366D+01
 Symmetry A'   KE= 7.147620808971D+01
 Symmetry A"   KE= 4.467192923946D+00
 No NMR shielding tensors so no spin-rotation constants.
 Leave Link  601 at Fri Oct 30 23:44:04 2015, MaxMem=    33554432 cpu:         1.8
 (Enter /group/hpc-share/gaussian/2009D/g09/l9999.exe)
 B after Tr=     0.030430    0.000000    0.023315
         Rot=    1.000000    0.000000   -0.000253    0.000000 Ang=  -0.03 deg.
 Final structure in terms of initial Z-matrix:
 O
 H,1,ho2
 H,1,ho3,2,hoh3
      Variables:
 ho2=0.96127763
 ho3=0.96130501
 hoh3=104.11736114
 1\1\GINC-HPC-CN67\FOpt\RMP2-FC\Aug-CC-pVTZ\H2O1\6498IVANOVM\30-Oct-201
 5\0\\#P mp2/aug-cc-pvtz opt\\water\\0,1\O,-0.0230152875,0.,-0.01760916
 06\H,0.0213066595,0.,0.9426461427\H,0.8974542349,0.,-0.2948151952\\Ver
 sion=EM64L-G09RevD.01\State=1-A'\HF=-76.0602889\MP2=-76.3289923\RMSD=3
 .504e-09\RMSF=5.066e-05\Dipole=0.5970144,0.,0.4226769\PG=CS [SG(H2O1)]
 \\@


 GARLIC THEN HAVE POWER TO SAVE FROM DEATH
 BEAR WITH IT THOUGH IT MAKETH UNSAVORY BREATH,
 AND SCORN NOT GARLIC LIKE SOME THAT THINK
 IT ONLY MAKETH MEN WINK AND DRINK AND STINK.
   --  SIR JOHN HARRINGTON,
       "THE ENGLISHMAN'S DOCTOR", 1609
 Job cpu time:       0 days  0 hours  1 minutes 34.1 seconds.
 File lengths (MBytes):  RWF=      6 Int=      0 D2E=      0 Chk=      2 Scr=      1
 Normal termination of Gaussian 09 at Fri Oct 30 23:44:04 2015.
