2
log/ClF_b3lyp_augccpvdz.log	Energy: -351400.1768622
Cl         0.00000        0.00000        0.57942
F          0.00000        0.00000       -1.09446
