4
log/formaldehyde_pbe_def2svp.log	Energy:  -71711.4890974
C          0.00000        0.00000       -0.52262
O          0.00000        0.00000        0.67293
H          0.00000        0.94695       -1.12389
H          0.00000       -0.94695       -1.12389
