4
../log/formaldehyde_b3lyp_augccpvdz.log	Energy:  -71862.7339133
C          0.00000        0.00000       -0.53029
O          0.00000        0.00000        0.67716
H          0.00000        0.94705       -1.11778
H          0.00000       -0.94705       -1.11778
