5
../log/methanimine_b3lyp_augccpvdz.log	Energy:  -59390.9901025
C          0.05645        0.58687        0.00000
H         -0.85007        1.21389        0.00000
H          1.01841        1.11507        0.00000
N          0.05645       -0.68560        0.00000
H         -0.90224       -1.05099        0.00000
