6
log/methanol_pbe_def2svp.log	Energy:  -72465.8236160
O         -0.04646       -0.74855        0.00000
H          0.86977       -1.05852        0.00000
C         -0.04646        0.64980        0.00000
H         -1.09886        0.97770        0.00000
H          0.43978        1.08521        0.89881
H          0.43978        1.08521       -0.89881
