6
log/methanol_b3lyp_augccpvdz.log	Energy:  -72629.4535022
O         -0.04655       -0.75940        0.00000
H          0.86551       -1.07136        0.00000
C         -0.04655        0.66753        0.00000
H         -1.09737        0.98056        0.00000
H          0.44175        1.08039        0.89819
H          0.44175        1.08039       -0.89819
