6
../log/methanethiol_b3lyp_augccpvdz.log	Energy: -275305.0601747
S         -0.04841       -0.67276        0.00000
H          1.29776       -0.84077        0.00000
C         -0.04841        1.16791        0.00000
H         -1.10195        1.47110        0.00000
H          0.43461        1.56322        0.90038
H          0.43461        1.56322       -0.90038
