7
log/trans-mesno_pbe_def2svpd.log	Energy: -356053.5226624
O         -1.66653       -1.15888        0.00000
N         -0.50970       -0.95579        0.00000
S          0.00000        0.77291        0.00000
C          1.75558        0.41657        0.00000
H          2.27962        1.38609        0.00000
H          2.04354       -0.14527        0.90256
H          2.04354       -0.14527       -0.90256
