12
log/uracil_mp2_augccpvtz.log	Energy: -258925.7109297
N         -1.13760        1.02339        0.00000
C          0.05287        1.70248        0.00000
C          1.23978        1.06151        0.00000
C          1.27356       -0.39019        0.00000
N          0.00000       -0.97920        0.00000
C         -1.23117       -0.35813        0.00000
H         -0.02580        2.78008        0.00000
H          2.17206        1.60086        0.00000
O          2.27563       -1.08738        0.00000
H         -0.02337       -1.99085        0.00000
O         -2.29457       -0.95075        0.00000
H         -2.01851        1.51161        0.00000
