3
log/water_mp2_augccpvtz.log	Energy:  -47728.5514750
O          0.00000        0.11821        0.00000
H          0.75811       -0.47282        0.00000
H         -0.75811       -0.47286        0.00000
