cis-mesno                                                               
FOpt      RPBE1PBE                                                    Gen                 
Number of atoms                            I                7
Info1-9                                    I   N=           9
         302         301           0           0           0         110
           2          18        -302
Charge                                     I                0
Multiplicity                               I                1
Number of electrons                        I               40
Number of alpha electrons                  I               20
Number of beta electrons                   I               20
Number of basis functions                  I               71
Number of independent functions            I               71
Number of point charges in /Mol/           I                0
Number of translation vectors              I                0
Atomic numbers                             I   N=           7
           8           7          16           6           1           1
           1
Nuclear charges                            R   N=           7
  8.00000000E+00  7.00000000E+00  1.60000000E+01  6.00000000E+00  1.00000000E+00
  1.00000000E+00  1.00000000E+00
Current cartesian coordinates              R   N=          21
 -1.46830579E+00 -2.79044607E+00  9.86076132E-32 -2.27362941E+00 -7.07863693E-01
  3.82104501E-31  2.49800181E-16  1.77055807E+00 -4.43734259E-31  2.87255377E+00
 -1.52049652E-04 -9.27527861E-31  4.44796975E+00  1.36136416E+00  6.65601389E-31
  2.98927994E+00 -1.20538331E+00  1.69646101E+00  2.98927994E+00 -1.20538331E+00
 -1.69646101E+00
Force Field                                I                0
Int Atom Types                             I   N=           7
           0           0           0           0           0           0
           0
MM charges                                 R   N=           7
  0.00000000E+00  0.00000000E+00  0.00000000E+00  0.00000000E+00  0.00000000E+00
  0.00000000E+00  0.00000000E+00
Integer atomic weights                     I   N=           7
          16          14          32          12           1           1
           1
Real atomic weights                        R   N=           7
  1.59949146E+01  1.40030740E+01  3.19720718E+01  1.20000000E+01  1.00782504E+00
  1.00782504E+00  1.00782504E+00
Atom fragment info                         I   N=           7
           0           0           0           0           0           0
           0
Atom residue num                           I   N=           7
           0           0           0           0           0           0
           0
Nuclear spins                              I   N=           7
           0           2           0           0           1           1
           1
Nuclear ZEff                               R   N=           7
 -5.60000000E+00 -4.55000000E+00 -1.36000000E+01 -3.60000000E+00 -1.00000000E+00
 -1.00000000E+00 -1.00000000E+00
Nuclear ZNuc                               R   N=           7
  8.00000000E+00  7.00000000E+00  1.60000000E+01  6.00000000E+00  1.00000000E+00
  1.00000000E+00  1.00000000E+00
Nuclear QMom                               R   N=           7
  0.00000000E+00  2.04400000E+00  0.00000000E+00  0.00000000E+00  0.00000000E+00
  0.00000000E+00  0.00000000E+00
Nuclear GFac                               R   N=           7
  0.00000000E+00  4.03761000E-01  0.00000000E+00  0.00000000E+00  2.79284600E+00
  2.79284600E+00  2.79284600E+00
MicOpt                                     I   N=           7
          -1          -1          -1          -1          -1          -1
          -1
Number of contracted shells                I               33
Number of primitive shells                 I               67
Pure/Cartesian d shells                    I                0
Pure/Cartesian f shells                    I                0
Highest angular momentum                   I                2
Largest degree of contraction              I                5
Shell types                                I   N=          33
           0           0           0           1           1          -2
           0           0           0           1           1          -2
           0           0           0           0           1           1
           1          -2          -2           0           0           0
           1           1          -2           0           0           0
           0           0           0
Number of primitives per shell             I   N=          33
           5           1           1           3           1           1
           5           1           1           3           1           1
           5           3           1           1           5           1
           1           1           1           5           1           1
           3           1           1           3           1           3
           1           3           1
Shell to atom map                          I   N=          33
           1           1           1           1           1           1
           2           2           2           2           2           2
           3           3           3           3           3           3
           3           3           3           4           4           4
           4           4           4           5           5           6
           6           7           7
Primitive exponents                        R   N=          67
  2.26617678E+03  3.40870102E+02  7.73631352E+01  2.14796449E+01  6.65894331E+00
  8.09759757E-01  2.55307722E-01  1.77215043E+01  3.86355054E+00  1.04809209E+00
  2.76415444E-01  1.20000000E+00  1.71284159E+03  2.57648127E+02  5.84582459E+01
  1.61983679E+01  5.00526008E+00  5.87318566E-01  1.87645923E-01  1.35714702E+01
  2.92573729E+00  7.99277508E-01  2.19543480E-01  1.00000000E+00  9.18493030E+03
  1.38151055E+03  3.13871476E+02  8.80538706E+01  2.70399149E+01  4.56487313E+01
  4.96645223E+00  2.01162420E+00  3.56610770E-01  1.35072215E-01  2.61982334E+02
  6.13068947E+01  1.91037299E+01  6.65677204E+00  2.39596352E+00  6.17761617E-01
  1.69933769E-01  5.50000000E-01  2.99400000E+00  1.23840169E+03  1.86290050E+02
  4.22511763E+01  1.16765579E+01  3.59305065E+00  4.02451474E-01  1.30901827E-01
  9.46809706E+00  2.01035451E+00  5.47710047E-01  1.52686138E-01  8.00000000E-01
  1.30107010E+01  1.96225720E+00  4.44537960E-01  1.21949620E-01  1.30107010E+01
  1.96225720E+00  4.44537960E-01  1.21949620E-01  1.30107010E+01  1.96225720E+00
  4.44537960E-01  1.21949620E-01
Contraction coefficients                   R   N=          67
 -5.38935039E-03 -4.02347214E-02 -1.80081842E-01 -4.68288577E-01 -4.46926172E-01
  1.00000000E+00  1.00000000E+00  6.26302488E-02  3.33311385E-01  7.41486383E-01
  1.00000000E+00  1.00000000E+00 -5.44779958E-03 -4.06271746E-02 -1.81119623E-01
 -4.68439756E-01 -4.46168463E-01  1.00000000E+00  1.00000000E+00 -5.88481170E-02
 -3.20246248E-01 -7.53282265E-01  1.00000000E+00  1.00000000E+00 -5.47294661E-03
 -4.09544022E-02 -1.84758290E-01 -4.75672806E-01 -4.34951536E-01 -9.19040458E-02
  5.56987772E-01  5.11154683E-01  1.00000000E+00  1.00000000E+00 -9.18305466E-03
 -6.59022265E-02 -2.45877845E-01 -4.82314711E-01 -3.89563144E-01  1.00000000E+00
  1.00000000E+00  1.00000000E+00  1.00000000E+00  5.51736505E-03  4.10888286E-02
  1.82253821E-01  4.68284594E-01  4.45758173E-01  1.00000000E+00  1.00000000E+00
  5.68883320E-02  3.12940593E-01  7.60650165E-01  1.00000000E+00  1.00000000E+00
  3.34854848E-02  2.34721871E-01  8.13770285E-01  1.00000000E+00  3.34854848E-02
  2.34721871E-01  8.13770285E-01  1.00000000E+00  3.34854848E-02  2.34721871E-01
  8.13770285E-01  1.00000000E+00
Coordinates of each shell                  R   N=          99
 -1.46830579E+00 -2.79044607E+00 -4.93038066E-31 -1.46830579E+00 -2.79044607E+00
 -4.93038066E-31 -1.46830579E+00 -2.79044607E+00 -4.93038066E-31 -1.46830579E+00
 -2.79044607E+00 -4.93038066E-31 -1.46830579E+00 -2.79044607E+00 -4.93038066E-31
 -1.46830579E+00 -2.79044607E+00 -4.93038066E-31 -2.27362941E+00 -7.07863693E-01
  1.04770589E-30 -2.27362941E+00 -7.07863693E-01  1.04770589E-30 -2.27362941E+00
 -7.07863693E-01  1.04770589E-30 -2.27362941E+00 -7.07863693E-01  1.04770589E-30
 -2.27362941E+00 -7.07863693E-01  1.04770589E-30 -2.27362941E+00 -7.07863693E-01
  1.04770589E-30 -1.38777878E-17  1.77055807E+00  6.16297582E-31 -1.38777878E-17
  1.77055807E+00  6.16297582E-31 -1.38777878E-17  1.77055807E+00  6.16297582E-31
 -1.38777878E-17  1.77055807E+00  6.16297582E-31 -1.38777878E-17  1.77055807E+00
  6.16297582E-31 -1.38777878E-17  1.77055807E+00  6.16297582E-31 -1.38777878E-17
  1.77055807E+00  6.16297582E-31 -1.38777878E-17  1.77055807E+00  6.16297582E-31
 -1.38777878E-17  1.77055807E+00  6.16297582E-31  2.87255377E+00 -1.52049652E-04
 -2.06151541E-30  2.87255377E+00 -1.52049652E-04 -2.06151541E-30  2.87255377E+00
 -1.52049652E-04 -2.06151541E-30  2.87255377E+00 -1.52049652E-04 -2.06151541E-30
  2.87255377E+00 -1.52049652E-04 -2.06151541E-30  2.87255377E+00 -1.52049652E-04
 -2.06151541E-30  4.44796975E+00  1.36136416E+00 -1.29422492E-30  4.44796975E+00
  1.36136416E+00 -1.29422492E-30  2.98927994E+00 -1.20538331E+00  1.69646101E+00
  2.98927994E+00 -1.20538331E+00  1.69646101E+00  2.98927994E+00 -1.20538331E+00
 -1.69646101E+00  2.98927994E+00 -1.20538331E+00 -1.69646101E+00
Constraint Structure                       R   N=          21
 -1.72027849E+00 -3.13075695E+00  0.00000000E+00 -2.47959372E+00 -5.96446886E-01
  0.00000000E+00  2.22044605E-16  1.21503265E+00  0.00000000E+00  3.22920970E+00
  1.09521825E+00  0.00000000E+00  3.98664762E+00  3.00866765E+00  0.00000000E+00
  3.87873909E+00  1.00342124E-01  1.68027791E+00  3.87873909E+00  1.00342124E-01
 -1.68027791E+00
Num ILSW                                   I              100
ILSW                                       I   N=         100
           0           0           0           0           2           0
           0           0           0           0        1009          -1
           0           0           0           0           2           0
           0           0           0           0           1           0
           1           0           0           0           0           0
           0           0      100000           0          -1           0
           0           0           0           0           0           0
           0           0           0           1           0           0
           0           0           1           0           0           0
           0           0           4          41           0           0
           0           0          13           0           0           0
           0           0           0           7           0           0
           0           0           0           0           0           0
           0           0           0           0           0           0
           0           0           0           0           0           0
           0           0           0           0           0           0
           0           0           0           0
Num RLSW                                   I               41
RLSW                                       R   N=          41
  7.50000000E-01  7.50000000E-01  1.00000000E+00  1.00000000E+00  2.50000000E-01
  0.00000000E+00  0.00000000E+00  1.00000000E+00  0.00000000E+00  0.00000000E+00
  0.00000000E+00  0.00000000E+00  1.00000000E+00  0.00000000E+00  0.00000000E+00
  0.00000000E+00  0.00000000E+00  1.00000000E+00  0.00000000E+00  0.00000000E+00
  0.00000000E+00  0.00000000E+00  1.00000000E+00  0.00000000E+00  0.00000000E+00
  0.00000000E+00  0.00000000E+00  1.00000000E+00  0.00000000E+00  0.00000000E+00
  0.00000000E+00  0.00000000E+00  1.00000000E+00  0.00000000E+00  0.00000000E+00
  0.00000000E+00  0.00000000E+00  0.00000000E+00  1.00000000E+00  1.00000000E+00
  0.00000000E+00
MxBond                                     I                4
NBond                                      I   N=           7
           1           2           2           4           1           1
           1
IBond                                      I   N=          28
           2           0           0           0           1           3
           0           0           2           4           0           0
           3           5           6           7           4           0
           0           0           4           0           0           0
           4           0           0           0
RBond                                      R   N=          28
  1.00000000E+00  0.00000000E+00  0.00000000E+00  0.00000000E+00  1.00000000E+00
  1.00000000E+00  0.00000000E+00  0.00000000E+00  1.00000000E+00  1.00000000E+00
  0.00000000E+00  0.00000000E+00  1.00000000E+00  1.00000000E+00  1.00000000E+00
  1.00000000E+00  1.00000000E+00  0.00000000E+00  0.00000000E+00  0.00000000E+00
  1.00000000E+00  0.00000000E+00  0.00000000E+00  0.00000000E+00  1.00000000E+00
  0.00000000E+00  0.00000000E+00  0.00000000E+00
Virial Ratio                               R      2.003133518595941E+00
SCF Energy                                 R     -5.674105806157340E+02
Total Energy                               R     -5.674105806157340E+02
RMS Force                                  R      2.450890056341065E-05
RMS Density                                R      4.847733042188757E-09
External E-field                           R   N=          35
  0.00000000E+00  0.00000000E+00  0.00000000E+00  0.00000000E+00  0.00000000E+00
  0.00000000E+00  0.00000000E+00  0.00000000E+00  0.00000000E+00  0.00000000E+00
  0.00000000E+00  0.00000000E+00  0.00000000E+00  0.00000000E+00  0.00000000E+00
  0.00000000E+00  0.00000000E+00  0.00000000E+00  0.00000000E+00  0.00000000E+00
  0.00000000E+00  0.00000000E+00  0.00000000E+00  0.00000000E+00  0.00000000E+00
  0.00000000E+00  0.00000000E+00  0.00000000E+00  0.00000000E+00  0.00000000E+00
  0.00000000E+00  0.00000000E+00  0.00000000E+00  0.00000000E+00  0.00000000E+00
IOpCl                                      I                0
IROHF                                      I                0
Alpha Orbital Energies                     R   N=          71
 -8.90339316E+01 -1.92838411E+01 -1.45281394E+01 -1.02708268E+01 -8.03666370E+00
 -5.97872388E+00 -5.97398370E+00 -5.96986172E+00 -1.21619389E+00 -8.47829091E-01
 -7.36215563E-01 -6.12026795E-01 -5.30295875E-01 -5.01929879E-01 -4.91848675E-01
 -4.53793636E-01 -4.40879807E-01 -3.75688230E-01 -2.81705533E-01 -2.51450516E-01
 -7.90453558E-02  8.14532822E-03  5.91406271E-02  1.05026939E-01  1.17808689E-01
  1.23250762E-01  2.96916571E-01  3.81854613E-01  3.97492488E-01  4.24919734E-01
  4.70236871E-01  5.52510502E-01  6.03930695E-01  6.20576822E-01  6.46796631E-01
  6.62951116E-01  6.79839937E-01  6.92555951E-01  6.94240828E-01  7.03928522E-01
  7.53047500E-01  7.58770845E-01  8.31627746E-01  8.33386676E-01  9.06582948E-01
  9.70404744E-01  9.94199007E-01  1.00197659E+00  1.09270621E+00  1.16784025E+00
  1.39166980E+00  1.69386078E+00  1.71511588E+00  1.90146033E+00  1.97318342E+00
  2.06351344E+00  2.09877512E+00  2.10444828E+00  2.13415698E+00  2.32586954E+00
  2.64228078E+00  2.65230626E+00  2.69439062E+00  3.21531107E+00  3.25208838E+00
  3.65298419E+00  4.63249988E+00  4.64804624E+00  4.70417602E+00  4.78396727E+00
  4.93472899E+00
Alpha MO coefficients                      R   N=        5041
 -1.63530765E-05 -1.60518215E-04  1.02325449E-04 -4.74863991E-05 -8.21764869E-05
  0.00000000E+00  2.54132444E-04  2.49172037E-04  0.00000000E+00 -3.26571215E-05
  0.00000000E+00  0.00000000E+00 -1.89221901E-05  3.97671812E-05 -3.04482050E-05
 -9.05686303E-05  7.73283324E-04 -2.73622735E-05 -3.30320608E-05  0.00000000E+00
 -1.30894865E-04 -1.94692988E-04  0.00000000E+00  1.86361095E-04  0.00000000E+00
  0.00000000E+00  3.18860303E-06 -2.86438513E-04  9.94259172E-01 -2.16603135E-02
  9.83541466E-03 -7.02003537E-03  5.46948324E-05 -1.45466304E-04  0.00000000E+00
  1.95873574E-04 -4.94122519E-04  0.00000000E+00 -9.51824543E-04  1.22728504E-03
  0.00000000E+00  9.94261698E-05  0.00000000E+00  0.00000000E+00 -1.98959942E-05
  8.42213742E-05 -2.00156240E-05  0.00000000E+00  0.00000000E+00  5.15591572E-07
 -1.72612745E-05  4.15295525E-05 -1.08145431E-04  1.59465032E-03  1.43407544E-04
 -1.47585178E-04  0.00000000E+00 -8.73468408E-04  6.50141789E-04  0.00000000E+00
  1.82752229E-04  0.00000000E+00  0.00000000E+00 -1.12448159E-04  3.09930730E-04
 -1.72907842E-04  1.67987174E-04 -1.10032466E-04  2.41964540E-04 -1.10032466E-04
  2.41964540E-04  9.89013705E-01 -3.98527990E-02  2.82223330E-02  7.23708307E-04
 -2.90520186E-03  0.00000000E+00 -1.83648361E-03  8.19510048E-03  0.00000000E+00
  1.42195479E-04  0.00000000E+00  0.00000000E+00  1.70545933E-04  3.14623446E-04
  4.21487286E-04  1.56183372E-03 -1.55003234E-02 -5.94335677E-04  1.14035295E-03
  0.00000000E+00 -4.45774613E-03  6.58509335E-03  0.00000000E+00 -6.43526938E-04
  0.00000000E+00  0.00000000E+00 -1.10064221E-03 -9.21507059E-04 -9.01338119E-06
 -7.24841322E-05 -5.49601112E-04  5.24481414E-03 -5.00472564E-05 -5.78520387E-05
  0.00000000E+00 -3.11239037E-04 -1.95262305E-04  0.00000000E+00  1.39776496E-03
 -2.94892461E-03  0.00000000E+00 -2.74204454E-04  0.00000000E+00  0.00000000E+00
 -4.70950019E-04  2.47104432E-05  3.02053242E-05  0.00000000E+00  0.00000000E+00
  7.23068881E-05  3.45653325E-06 -7.64303999E-05  1.30081291E-03 -5.11285695E-03
 -4.32018227E-04 -2.72186377E-04  0.00000000E+00  3.44067928E-03  9.60355098E-04
  0.00000000E+00 -1.07018285E-04  0.00000000E+00  0.00000000E+00 -6.54884855E-05
  2.20856509E-04 -2.85369789E-04 -7.97967794E-04  8.67786833E-04  3.91592112E-04
  8.67786833E-04  3.91592112E-04  2.58574759E-04  1.20063134E-03  6.31251394E-04
 -6.52318945E-04  1.68239369E-03  0.00000000E+00 -1.87184172E-03  2.38426452E-03
  0.00000000E+00 -1.17629097E-03  0.00000000E+00  0.00000000E+00 -1.27199308E-03
 -1.37951251E-03  9.89271128E-01 -3.95688242E-02  1.83482708E-02  3.00518814E-03
 -1.93238115E-03  0.00000000E+00  4.36384506E-03  3.90808480E-03  0.00000000E+00
  6.49221585E-04  0.00000000E+00  0.00000000E+00  1.24000850E-03  1.17458016E-03
 -3.15918506E-05 -2.20952759E-04  1.78268884E-03 -8.13745292E-03 -5.18734544E-05
 -1.00660837E-04  0.00000000E+00  1.43617903E-04 -2.52070953E-04  0.00000000E+00
  2.12036448E-03  4.21105966E-03  0.00000000E+00  2.41455773E-04  0.00000000E+00
  0.00000000E+00  1.06280318E-05  1.09507026E-04  1.22279061E-05  0.00000000E+00
  0.00000000E+00  5.69492590E-06 -1.24824665E-04 -5.48193278E-05  5.00132513E-04
  1.18784403E-03 -4.48117802E-04 -2.31219051E-05  0.00000000E+00  8.13656085E-05
  9.56473404E-04  0.00000000E+00 -1.89294851E-05  0.00000000E+00  0.00000000E+00
  1.34523789E-04 -7.99688731E-05 -1.76140005E-04 -7.88322034E-04  1.30893146E-04
  2.25046387E-04  1.30893146E-04  2.25046387E-04 -7.89062772E-05 -8.28638253E-04
  2.02029472E-03 -2.10625392E-04 -1.99038292E-04  0.00000000E+00  7.40368496E-04
  1.27557062E-03  0.00000000E+00 -1.67043958E-04  0.00000000E+00  0.00000000E+00
 -2.51744050E-05  7.29572182E-05 -5.22410206E-05 -3.76141510E-04 -1.39863558E-03
  1.97497792E-04 -1.25653100E-04  0.00000000E+00 -3.37457354E-04 -4.31875448E-05
  0.00000000E+00 -1.05704132E-05  0.00000000E+00  0.00000000E+00  6.92725739E-05
 -3.60440596E-05  4.23948080E-05  3.21388576E-04 -6.82390799E-04  6.69885796E-03
 -2.10994246E-04  1.13976348E-04  0.00000000E+00 -5.47977359E-04  2.88111492E-04
  0.00000000E+00  1.92564190E-03 -1.79907048E-03  0.00000000E+00  7.75157012E-04
  0.00000000E+00  0.00000000E+00 -6.58092871E-04  1.35712686E-03 -1.39485002E-04
  0.00000000E+00  0.00000000E+00  1.12598094E-04 -2.39426952E-04  9.88822414E-01
  4.57887954E-02 -4.32369006E-02 -4.23111048E-04  9.56091564E-05  0.00000000E+00
  6.46890256E-04  7.82421600E-04  0.00000000E+00 -1.37570604E-05  0.00000000E+00
  0.00000000E+00 -6.99898266E-05  1.52574319E-04 -1.81988463E-03  8.64479119E-03
 -1.35649248E-03  9.21282964E-03 -1.35649248E-03  9.21282964E-03 -3.46141486E-05
 -3.82399869E-04  5.67854646E-04 -1.13282850E-04 -1.40542516E-04  0.00000000E+00
  7.10907571E-04  6.99776904E-04  0.00000000E+00 -6.21895914E-05  0.00000000E+00
  0.00000000E+00 -5.12920643E-05  1.02753259E-04 -1.01361316E-04 -2.85229885E-04
  1.40042665E-03  5.73297974E-05  9.68272744E-05  0.00000000E+00 -7.55994710E-04
 -5.43509301E-04  0.00000000E+00  5.27086969E-04  0.00000000E+00  0.00000000E+00
  2.78397665E-05 -7.46938121E-04  3.06595836E-01  1.02163505E+00  4.79172214E-02
 -2.08099404E-02 -2.27286150E-03  5.47512028E-03  0.00000000E+00  6.76043181E-04
 -1.77774629E-03  0.00000000E+00 -2.19454638E-03  2.42531072E-03  0.00000000E+00
 -1.62236157E-04  0.00000000E+00  0.00000000E+00  2.55054024E-05  2.31966844E-04
 -5.89619767E-04  0.00000000E+00  0.00000000E+00  3.28089261E-04  1.44423580E-04
  1.03231610E-04 -2.47688009E-04  2.62530700E-03  5.93250177E-04 -5.10035783E-04
  0.00000000E+00 -1.93834266E-03  1.55318769E-03  0.00000000E+00  4.71490027E-04
  0.00000000E+00  0.00000000E+00 -3.18467418E-04  7.92209217E-04 -2.79221894E-04
  7.03684405E-04 -1.02486660E-04  8.67028667E-04 -1.02486660E-04  8.67028667E-04
 -4.93563855E-05 -6.22143280E-04  3.16389179E-03 -5.52140703E-05 -1.12561077E-04
  0.00000000E+00  1.41885756E-04  1.62487552E-03  0.00000000E+00 -5.76894036E-05
  0.00000000E+00  0.00000000E+00 -5.73873608E-05  1.37166837E-05 -1.96699935E-05
  6.57848440E-04 -2.65813736E-03 -1.26550632E-04  3.85285054E-05  0.00000000E+00
 -2.61634617E-03  1.05187951E-03  0.00000000E+00  7.32079557E-04  0.00000000E+00
  0.00000000E+00  9.81772195E-05 -8.99229551E-04  2.90477462E-04  1.02999539E-03
 -9.09249453E-04  4.04521193E-03  9.53072555E-01  2.36036649E-01  0.00000000E+00
 -4.91259738E-02 -1.19203651E-02  0.00000000E+00  9.70396284E-03  2.52261905E-04
  0.00000000E+00 -2.54172846E-04  0.00000000E+00  0.00000000E+00 -3.46488009E-04
  8.36221180E-04  7.56555394E-05  0.00000000E+00  0.00000000E+00 -4.84279630E-04
  5.50837486E-04 -8.80722491E-05  1.95561111E-04 -3.41700743E-03 -4.36645047E-04
  3.04407181E-04  0.00000000E+00  1.11529077E-03 -1.61664607E-03  0.00000000E+00
 -4.75668444E-04  0.00000000E+00  0.00000000E+00  3.54466626E-04 -8.71758353E-04
  4.79611765E-04 -5.04682963E-04  9.75579522E-05 -6.02067808E-05  9.75579522E-05
 -6.02067808E-05 -4.19856874E-05 -4.66324009E-04  3.31616480E-04 -6.58292061E-05
 -1.61465452E-04  0.00000000E+00  4.96045412E-04  5.87354760E-04  0.00000000E+00
 -8.32938298E-05  0.00000000E+00  0.00000000E+00 -4.70132537E-05  1.20842031E-04
 -3.21602865E-05 -1.43591390E-04  1.99238894E-03  3.52162975E-05 -4.76129186E-05
  0.00000000E+00  5.43612193E-04 -3.81112734E-04  0.00000000E+00  3.26920280E-04
  0.00000000E+00  0.00000000E+00 -6.42387166E-05 -5.14067402E-04 -2.03013318E-03
 -7.41167164E-03  3.56014690E-03 -6.42393454E-03 -2.36020395E-01  9.53312242E-01
  0.00000000E+00  1.21520402E-02 -4.84758499E-02  0.00000000E+00 -3.58257958E-03
  1.03545043E-02  0.00000000E+00 -1.38908654E-05  0.00000000E+00  0.00000000E+00
 -1.11789242E-05 -2.97067018E-05 -4.96832367E-04  0.00000000E+00  0.00000000E+00
 -8.76736213E-04 -5.77250045E-04  6.10151813E-05 -2.09303949E-04  4.85087922E-03
  2.40597104E-04 -3.22478164E-04  0.00000000E+00 -1.85747942E-03  9.50445987E-04
  0.00000000E+00  4.95559669E-04  0.00000000E+00  0.00000000E+00 -3.78189445E-04
  7.09068060E-04 -1.49221996E-04 -7.28041822E-04 -2.67543761E-04  1.94524869E-04
 -2.67543761E-04  1.94524869E-04  0.00000000E+00  0.00000000E+00  0.00000000E+00
  0.00000000E+00  0.00000000E+00  1.47239710E-05  0.00000000E+00  0.00000000E+00
  1.22713908E-04  0.00000000E+00 -4.53627652E-05  1.65442200E-05  0.00000000E+00
  0.00000000E+00  0.00000000E+00  0.00000000E+00  0.00000000E+00  0.00000000E+00
  0.00000000E+00 -1.20397841E-04  0.00000000E+00  0.00000000E+00 -9.64437616E-04
  0.00000000E+00  1.99541927E-05  5.32526327E-05  0.00000000E+00  0.00000000E+00
  0.00000000E+00  0.00000000E+00  0.00000000E+00  0.00000000E+00  0.00000000E+00
  0.00000000E+00  9.82557757E-01  0.00000000E+00  0.00000000E+00 -4.83880248E-02
  0.00000000E+00  0.00000000E+00  8.10984015E-03  0.00000000E+00 -1.00427410E-05
 -9.10501642E-06  0.00000000E+00  0.00000000E+00  0.00000000E+00 -4.30643266E-04
  9.21885966E-04  0.00000000E+00  0.00000000E+00  0.00000000E+00  0.00000000E+00
  0.00000000E+00  0.00000000E+00  0.00000000E+00  7.64606731E-05  0.00000000E+00
  0.00000000E+00 -1.36217044E-03  0.00000000E+00 -6.17797715E-05  1.54394795E-04
  0.00000000E+00  0.00000000E+00  0.00000000E+00  0.00000000E+00  3.31598890E-04
 -1.21408246E-04 -3.31598890E-04  1.21408246E-04  2.26772639E-01  4.54284703E-01
  2.24581789E-01 -5.92559133E-02  1.78938436E-01  0.00000000E+00 -1.48724577E-02
  5.19449089E-02  0.00000000E+00 -7.39267666E-03  0.00000000E+00  0.00000000E+00
 -1.39113980E-02 -9.79454017E-03  1.77329225E-01  3.61773057E-01  8.70220566E-02
 -9.92555874E-02  1.75165643E-01  0.00000000E+00  2.40915442E-02 -1.61328040E-02
  0.00000000E+00 -1.41648384E-02  0.00000000E+00  0.00000000E+00 -1.38854951E-02
 -1.53371015E-02 -6.48720325E-03 -3.90963620E-02  5.15921980E-02  1.19408189E-02
 -7.70517358E-03 -1.46891622E-02  0.00000000E+00 -1.16847446E-02 -2.21047640E-02
  0.00000000E+00 -3.02875865E-03 -1.06546061E-02  0.00000000E+00 -6.15227091E-03
  0.00000000E+00  0.00000000E+00 -4.58102344E-03  7.28789901E-03 -1.07041091E-03
  0.00000000E+00  0.00000000E+00 -6.65066363E-04  1.48235478E-03 -5.06542072E-03
  1.01572210E-02 -2.38926560E-03 -5.69608983E-03 -2.26714073E-04  0.00000000E+00
  2.33340002E-04  1.39948417E-04  0.00000000E+00 -4.98519774E-04  0.00000000E+00
  0.00000000E+00  4.68522937E-04 -6.15139795E-05  6.94862850E-04  7.06215480E-04
  2.75163152E-03  4.68090438E-04  2.75163152E-03  4.68090438E-04 -8.30463405E-02
 -1.74136866E-01 -1.30289398E-01  3.85221802E-02  6.76138618E-03  0.00000000E+00
  1.39622751E-02  4.99267890E-04  0.00000000E+00 -1.20462515E-03  0.00000000E+00
  0.00000000E+00 -2.03850929E-03  4.00547416E-03  7.00107307E-02  1.47469520E-01
  9.77908629E-02 -6.70245834E-02 -1.55091221E-01  0.00000000E+00  3.50962461E-02
  4.72180955E-02  0.00000000E+00 -2.08041344E-03  0.00000000E+00  0.00000000E+00
  8.94481481E-03  1.36768646E-02 -5.88852665E-02 -3.66503610E-01  5.12540352E-01
  2.08284776E-01  9.97585795E-03 -4.98148058E-02  0.00000000E+00  1.51308808E-02
 -8.27320346E-02  0.00000000E+00  2.46149400E-02 -5.92398784E-02  0.00000000E+00
 -2.90101601E-02  0.00000000E+00  0.00000000E+00  7.32240714E-03  3.26242526E-03
 -4.23774901E-03  0.00000000E+00  0.00000000E+00  1.53711921E-03  2.55790288E-04
 -1.37904261E-01  2.80192369E-01  7.24854178E-02 -6.17099630E-02  3.61563438E-02
  0.00000000E+00 -4.84499974E-03  7.94803260E-03  0.00000000E+00 -3.83629593E-03
  0.00000000E+00  0.00000000E+00  2.86564402E-03 -5.18329525E-03  6.77025014E-02
  1.01697545E-03  6.72394738E-02 -1.30543247E-03  6.72394738E-02 -1.30543247E-03
  1.06686239E-01  2.18793192E-01  2.19986114E-01  1.05388811E-02 -7.83958027E-02
  0.00000000E+00  1.15880599E-02 -2.00726945E-02  0.00000000E+00  3.08278101E-03
  0.00000000E+00  0.00000000E+00  4.92605735E-03  7.45005505E-04 -1.39769140E-01
 -3.04073516E-01 -2.20091995E-01  4.92264057E-02  1.44250603E-01  0.00000000E+00
 -4.31283327E-02 -5.24974094E-02  0.00000000E+00  1.92524220E-03  0.00000000E+00
  0.00000000E+00 -3.23836174E-03 -1.23425840E-02  1.14642640E-02  7.25478066E-02
 -1.14183282E-01 -1.04246351E-02  8.31002399E-02  1.70021008E-02  0.00000000E+00
  1.38676597E-01  3.12978963E-02  0.00000000E+00  9.94456044E-02  4.21966435E-05
  0.00000000E+00  2.70126663E-03  0.00000000E+00  0.00000000E+00  1.06389996E-02
 -4.80751989E-02  7.71174819E-04  0.00000000E+00  0.00000000E+00  1.89192376E-03
 -8.38136136E-03 -1.88289569E-01  3.87887913E-01  1.40335300E-01  2.14866003E-02
  3.37332596E-03  0.00000000E+00  6.79019688E-03 -6.23627734E-03  0.00000000E+00
  6.93408172E-04  0.00000000E+00  0.00000000E+00 -3.10249138E-03  1.66970751E-03
  1.35540984E-01  9.21597102E-03  1.22572576E-01  9.52972330E-03  1.22572576E-01
  9.52972330E-03  1.34489789E-01  2.78488432E-01  2.88842262E-01  1.35726863E-01
 -2.32835762E-01  0.00000000E+00  6.49301239E-02 -1.13633992E-01  0.00000000E+00
  7.92553935E-03  0.00000000E+00  0.00000000E+00  6.62927213E-03  1.03287768E-02
 -1.38054947E-01 -3.16311474E-01 -1.76687138E-01 -4.08528688E-02 -6.99775321E-02
  0.00000000E+00  2.80528110E-02  4.95514411E-03  0.00000000E+00 -1.05784691E-03
  0.00000000E+00  0.00000000E+00  5.80718409E-03  9.96372863E-04 -4.34878649E-02
 -2.76257199E-01  4.08393080E-01  1.96207087E-01  1.87997192E-02  2.02726269E-02
  0.00000000E+00  3.38189964E-02  3.20133790E-02  0.00000000E+00  1.50533775E-02
  4.08453126E-02  0.00000000E+00  2.32837564E-03  0.00000000E+00  0.00000000E+00
  8.33509392E-04 -8.03188524E-03  6.99056292E-04  0.00000000E+00  0.00000000E+00
  8.34216119E-05 -2.28145887E-03  1.00305946E-01 -2.14443918E-01 -9.87459193E-02
 -1.26562301E-01  7.36590963E-02  0.00000000E+00 -6.81810270E-02  1.96316812E-02
  0.00000000E+00 -6.10124637E-03  0.00000000E+00  0.00000000E+00  3.97277460E-03
 -9.50541949E-03 -1.08313449E-01 -7.01457078E-03 -1.08676718E-01 -6.27639416E-03
 -1.08676718E-01 -6.27639416E-03  4.86522336E-02  9.29080378E-02  1.21844266E-01
  3.17707716E-01 -1.42706513E-01  0.00000000E+00  1.79586833E-01 -7.57360047E-02
  0.00000000E+00  5.17981741E-03  0.00000000E+00  0.00000000E+00 -2.60985581E-03
  1.87475305E-02  1.28761533E-04 -1.56486635E-02  7.99248899E-02 -1.56751870E-01
 -2.79098184E-01  0.00000000E+00  1.08541800E-01  9.52310841E-02  0.00000000E+00
 -1.68853686E-03  0.00000000E+00  0.00000000E+00  2.11622001E-02  5.09417177E-03
  2.43909093E-02  1.55811524E-01 -2.31637578E-01 -1.54030891E-01 -9.10187179E-02
 -6.95237571E-02  0.00000000E+00 -1.60261054E-01 -1.18198916E-01  0.00000000E+00
 -1.24453465E-01 -1.06580265E-01  0.00000000E+00 -9.22119933E-03  0.00000000E+00