water                                                                   
FOpt      RB3LYP                                                      Aug-CC-pVDZ         
Number of atoms                            I                3
Info1-9                                    I   N=           9
          13          12           0           0           0         110
           2          18        -502
Charge                                     I                0
Multiplicity                               I                1
Number of electrons                        I               22
Number of alpha electrons                  I               11
Number of beta electrons                   I               11
Number of basis functions                  I               69
Number of independent functions            I               69
Number of point charges in /Mol/           I                0
Number of translation vectors              I                0
Atomic numbers                             I   N=           3
           8           6           8
Nuclear charges                            R   N=           3
  8.00000000E+00  6.00000000E+00  8.00000000E+00
Current cartesian coordinates              R   N=           9
  4.84541848E-16 -8.06789562E-32  2.20601280E+00  4.84541848E-16 -8.06789562E-32
  0.00000000E+00  7.54700500E-16 -8.06789562E-32 -2.20601280E+00
Force Field                                I                0
Int Atom Types                             I   N=           3
           0           0           0
MM charges                                 R   N=           3
  0.00000000E+00  0.00000000E+00  0.00000000E+00
Integer atomic weights                     I   N=           3
          16          12          16
Real atomic weights                        R   N=           3
  1.59949146E+01  1.20000000E+01  1.59949146E+01
Atom fragment info                         I   N=           3
           0           0           0
Atom residue num                           I   N=           3
           0           0           0
Nuclear spins                              I   N=           3
           0           0           0
Nuclear ZEff                               R   N=           3
 -5.60000000E+00 -3.60000000E+00 -5.60000000E+00
Nuclear QMom                               R   N=           3
  0.00000000E+00  0.00000000E+00  0.00000000E+00
Nuclear GFac                               R   N=           3
  0.00000000E+00  0.00000000E+00  0.00000000E+00
MicOpt                                     I   N=           3
          -1          -1          -1
Number of contracted shells                I               27
Number of primitive shells                 I               69
Pure/Cartesian d shells                    I                0
Pure/Cartesian f shells                    I                0
Highest angular momentum                   I                2
Largest degree of contraction              I                7
Shell types                                I   N=          27
           0           0           0           0           1           1
           1          -2          -2           0           0           0
           0           1           1           1          -2          -2
           0           0           0           0           1           1
           1          -2          -2
Number of primitives per shell             I   N=          27
           7           7           1           1           3           1
           1           1           1           7           7           1
           1           3           1           1           1           1
           7           7           1           1           3           1
           1           1           1
Shell to atom map                          I   N=          27
           1           1           1           1           1           1
           1           1           1           2           2           2
           2           2           2           2           2           2
           3           3           3           3           3           3
           3           3           3
Primitive exponents                        R   N=          69
  1.17200000E+04  1.75900000E+03  4.00800000E+02  1.13700000E+02  3.70300000E+01
  1.32700000E+01  5.02500000E+00  1.17200000E+04  4.00800000E+02  1.13700000E+02
  3.70300000E+01  1.32700000E+01  5.02500000E+00  1.01300000E+00  3.02300000E-01
  7.89600000E-02  1.77000000E+01  3.85400000E+00  1.04600000E+00  2.75300000E-01
  6.85600000E-02  1.18500000E+00  3.32000000E-01  6.66500000E+03  1.00000000E+03
  2.28000000E+02  6.47100000E+01  2.10600000E+01  7.49500000E+00  2.79700000E+00
  6.66500000E+03  2.28000000E+02  6.47100000E+01  2.10600000E+01  7.49500000E+00
  2.79700000E+00  5.21500000E-01  1.59600000E-01  4.69000000E-02  9.43900000E+00
  2.00200000E+00  5.45600000E-01  1.51700000E-01  4.04100000E-02  5.50000000E-01
  1.51000000E-01  1.17200000E+04  1.75900000E+03  4.00800000E+02  1.13700000E+02
  3.70300000E+01  1.32700000E+01  5.02500000E+00  1.17200000E+04  4.00800000E+02
  1.13700000E+02  3.70300000E+01  1.32700000E+01  5.02500000E+00  1.01300000E+00
  3.02300000E-01  7.89600000E-02  1.77000000E+01  3.85400000E+00  1.04600000E+00
  2.75300000E-01  6.85600000E-02  1.18500000E+00  3.32000000E-01
Contraction coefficients                   R   N=          69
  7.11864434E-04  5.48520199E-03  2.79099296E-02  1.05133208E-01  2.84002490E-01
  4.51673946E-01  2.73208126E-01  7.69030046E-06  3.13484579E-04 -2.96614853E-03
 -1.08753543E-02 -1.20753817E-01 -1.06275264E-01  1.09597548E+00  1.00000000E+00
  1.00000000E+00  6.26791663E-02  3.33536566E-01  7.41239642E-01  1.00000000E+00
  1.00000000E+00  1.00000000E+00  1.00000000E+00  6.93516317E-04  5.34150243E-03
  2.71366714E-02  1.01992385E-01  2.75508636E-01  4.51086433E-01  2.87565745E-01
  7.73354740E-06  2.78072137E-04 -2.57875654E-03 -8.95087684E-03 -1.06058855E-01
 -1.31517686E-01  1.09948660E+00  1.00000000E+00  1.00000000E+00  5.69792516E-02
  3.13207212E-01  7.60376742E-01  1.00000000E+00  1.00000000E+00  1.00000000E+00
  1.00000000E+00  7.11864434E-04  5.48520199E-03  2.79099296E-02  1.05133208E-01
  2.84002490E-01  4.51673946E-01  2.73208126E-01  7.69030046E-06  3.13484579E-04
 -2.96614853E-03 -1.08753543E-02 -1.20753817E-01 -1.06275264E-01  1.09597548E+00
  1.00000000E+00  1.00000000E+00  6.26791663E-02  3.33536566E-01  7.41239642E-01
  1.00000000E+00  1.00000000E+00  1.00000000E+00  1.00000000E+00
Coordinates of each shell                  R   N=          81
  0.00000000E+00  0.00000000E+00  2.20601280E+00  0.00000000E+00  0.00000000E+00
  2.20601280E+00  0.00000000E+00  0.00000000E+00  2.20601280E+00  0.00000000E+00
  0.00000000E+00  2.20601280E+00  0.00000000E+00  0.00000000E+00  2.20601280E+00
  0.00000000E+00  0.00000000E+00  2.20601280E+00  0.00000000E+00  0.00000000E+00
  2.20601280E+00  0.00000000E+00  0.00000000E+00  2.20601280E+00  0.00000000E+00
  0.00000000E+00  2.20601280E+00  0.00000000E+00  0.00000000E+00  0.00000000E+00
  0.00000000E+00  0.00000000E+00  0.00000000E+00  0.00000000E+00  0.00000000E+00
  0.00000000E+00  0.00000000E+00  0.00000000E+00  0.00000000E+00  0.00000000E+00
  0.00000000E+00  0.00000000E+00  0.00000000E+00  0.00000000E+00  0.00000000E+00
  0.00000000E+00  0.00000000E+00  0.00000000E+00  0.00000000E+00  0.00000000E+00
  0.00000000E+00  0.00000000E+00  0.00000000E+00  0.00000000E+00  2.70158652E-16
  0.00000000E+00 -2.20601280E+00  2.70158652E-16  0.00000000E+00 -2.20601280E+00
  2.70158652E-16  0.00000000E+00 -2.20601280E+00  2.70158652E-16  0.00000000E+00
 -2.20601280E+00  2.70158652E-16  0.00000000E+00 -2.20601280E+00  2.70158652E-16
  0.00000000E+00 -2.20601280E+00  2.70158652E-16  0.00000000E+00 -2.20601280E+00
  2.70158652E-16  0.00000000E+00 -2.20601280E+00  2.70158652E-16  0.00000000E+00
 -2.20601280E+00
Constraint Structure                       R   N=           9
  0.00000000E+00  0.00000000E+00  1.79523983E+00  0.00000000E+00  0.00000000E+00
  0.00000000E+00  2.19853471E-16  0.00000000E+00 -1.79523983E+00
Num ILSW                                   I              100
ILSW                                       I   N=         100
           0           0           0           0           2           0
           0           0           0           0         402          -1
           0           0           0           0           2           0
           0           0           0           0           1           0
           1           0           0           0           0           0
           0           0      100000           0          -1           0
           0           0           0           0           0           0
           0           0           0           1           0           0
           0           0           1           0           0           0
           0           0           4          40           0           0
           0           0           5           0           0           0
           0           0           0           0           0           0
           0           0           0           0           0           0
           0           0           0           0           0           0
           0           0           0           0           0           0
           0           0           0           0           0           0
           0           0           0           0
Num RLSW                                   I               40
RLSW                                       R   N=          40
  8.00000000E-01  7.20000000E-01  1.00000000E+00  8.10000000E-01  2.00000000E-01
  0.00000000E+00  0.00000000E+00  1.00000000E+00  0.00000000E+00  0.00000000E+00
  0.00000000E+00  0.00000000E+00  1.00000000E+00  0.00000000E+00  0.00000000E+00
  0.00000000E+00  0.00000000E+00  1.00000000E+00  0.00000000E+00  0.00000000E+00
  0.00000000E+00  0.00000000E+00  1.00000000E+00  0.00000000E+00  0.00000000E+00
  0.00000000E+00  0.00000000E+00  1.00000000E+00  0.00000000E+00  0.00000000E+00
  0.00000000E+00  0.00000000E+00  1.00000000E+00  0.00000000E+00  0.00000000E+00
  0.00000000E+00  0.00000000E+00  0.00000000E+00  1.00000000E+00  1.00000000E+00
MxBond                                     I                2
NBond                                      I   N=           3
           1           2           1
IBond                                      I   N=           6
           2           0           1           3           2           0
RBond                                      R   N=           6
  3.00000000E+00  0.00000000E+00  3.00000000E+00  3.00000000E+00  3.00000000E+00
  0.00000000E+00
Virial Ratio                               R      2.005956337080145E+00
SCF Energy                                 R     -1.886142143499657E+02
Total Energy                               R     -1.886142143499657E+02
RMS Force                                  R      8.874580899354649E-07
RMS Density                                R      2.620389847009975E-09
External E-field                           R   N=          35
  0.00000000E+00  0.00000000E+00  0.00000000E+00  0.00000000E+00  0.00000000E+00
  0.00000000E+00  0.00000000E+00  0.00000000E+00  0.00000000E+00  0.00000000E+00
  0.00000000E+00  0.00000000E+00  0.00000000E+00  0.00000000E+00  0.00000000E+00
  0.00000000E+00  0.00000000E+00  0.00000000E+00  0.00000000E+00  0.00000000E+00
  0.00000000E+00  0.00000000E+00  0.00000000E+00  0.00000000E+00  0.00000000E+00
  0.00000000E+00  0.00000000E+00  0.00000000E+00  0.00000000E+00  0.00000000E+00
  0.00000000E+00  0.00000000E+00  0.00000000E+00  0.00000000E+00  0.00000000E+00
IOpCl                                      I                0
IROHF                                      I                0
Alpha Orbital Energies                     R   N=          69
 -1.92407682E+01 -1.92407370E+01 -1.03925716E+01 -1.17478647E+00 -1.13539960E+00
 -5.77182102E-01 -5.33174436E-01 -5.25933051E-01 -5.25933051E-01 -3.83776514E-01
 -3.83776514E-01 -1.96169327E-02  1.44137864E-02  1.44137864E-02  4.70112805E-02
  4.84174150E-02  4.84174150E-02  1.17856714E-01  1.44626214E-01  1.44626214E-01
  1.50212934E-01  2.02803956E-01  2.18635964E-01  2.18635964E-01  2.70334196E-01
  2.82787170E-01  2.82801244E-01  3.24812494E-01  5.55652522E-01  5.55652522E-01
  5.61805074E-01  5.61805074E-01  5.83887691E-01  6.34602649E-01  7.76024724E-01
  7.76024942E-01  7.89390809E-01  8.34142935E-01  8.88338604E-01  8.88338604E-01
  9.78548479E-01  9.78561027E-01  1.05920136E+00  1.05920136E+00  1.10037234E+00
  1.25090189E+00  1.38048544E+00  1.38048824E+00  1.46194693E+00  1.46194693E+00
  1.48680671E+00  1.48680671E+00  1.64112388E+00  2.02245876E+00  2.02245876E+00
  2.33688792E+00  2.45231768E+00  2.48017345E+00  3.13783995E+00  3.13784136E+00
  3.23270871E+00  3.23270871E+00  3.25314688E+00  3.25315182E+00  3.31802693E+00
  3.52819734E+00  3.52819734E+00  3.65618151E+00  3.77478698E+00
Alpha MO coefficients                      R   N=        4761
  7.04874439E-01  1.86871699E-02 -1.82035415E-02 -3.46177521E-03  0.00000000E+00
  0.00000000E+00 -1.90295195E-03  0.00000000E+00  0.00000000E+00  5.46512996E-03
  0.00000000E+00  0.00000000E+00 -9.63329070E-05  3.72188720E-04  0.00000000E+00
  0.00000000E+00 -1.14065284E-16  0.00000000E+00 -1.60403440E-03  0.00000000E+00
  0.00000000E+00  9.41169261E-17  0.00000000E+00  7.00412891E-04  2.44619645E-03
  1.97745453E-02  3.26850151E-03  0.00000000E+00  0.00000000E+00  0.00000000E+00
  0.00000000E+00  0.00000000E+00  0.00000000E+00  0.00000000E+00  0.00000000E+00
  0.00000000E+00 -1.70055648E-03  0.00000000E+00  0.00000000E+00  1.57720746E-16
  0.00000000E+00  6.20737513E-03  0.00000000E+00  0.00000000E+00  2.30308587E-18
  0.00000000E+00  7.04874439E-01  1.86871699E-02 -1.82035415E-02 -3.46177521E-03
  0.00000000E+00  0.00000000E+00  1.90295195E-03  0.00000000E+00  0.00000000E+00
 -5.46512996E-03  0.00000000E+00  0.00000000E+00  9.63329070E-05  3.72188720E-04
  0.00000000E+00  0.00000000E+00 -1.14065284E-16  0.00000000E+00 -1.60403440E-03
  0.00000000E+00  0.00000000E+00  9.41169261E-17  0.00000000E+00  7.04799623E-01
  1.77264281E-02 -1.74554757E-02 -9.36858834E-03  0.00000000E+00  0.00000000E+00
 -1.44186611E-03  0.00000000E+00  0.00000000E+00  4.87087991E-03  0.00000000E+00
  0.00000000E+00  3.29096594E-03  4.61222464E-05  0.00000000E+00  0.00000000E+00
 -5.00033743E-16  0.00000000E+00 -2.36726259E-04  0.00000000E+00  0.00000000E+00
  1.60222609E-16  0.00000000E+00  0.00000000E+00  0.00000000E+00  0.00000000E+00
  0.00000000E+00  0.00000000E+00  0.00000000E+00  8.64639894E-04  0.00000000E+00
  0.00000000E+00  1.89005473E-02  0.00000000E+00  0.00000000E+00  3.51057565E-05
  0.00000000E+00  0.00000000E+00  0.00000000E+00  0.00000000E+00  0.00000000E+00
  0.00000000E+00  0.00000000E+00  0.00000000E+00  0.00000000E+00  0.00000000E+00
 -7.04799623E-01 -1.77264281E-02  1.74554757E-02  9.36858834E-03  0.00000000E+00
  0.00000000E+00 -1.44186611E-03  0.00000000E+00  0.00000000E+00  4.87087991E-03
  0.00000000E+00  0.00000000E+00  3.29096594E-03 -4.61222464E-05  0.00000000E+00
  0.00000000E+00  5.00033743E-16  0.00000000E+00  2.36726259E-04  0.00000000E+00
  0.00000000E+00 -1.60222609E-16  0.00000000E+00 -6.04467429E-05  1.12845038E-03
 -1.12433850E-02 -7.84958285E-03  0.00000000E+00  0.00000000E+00  1.18533122E-03
  0.00000000E+00  0.00000000E+00  1.44618720E-02  0.00000000E+00  0.00000000E+00
  2.14654251E-03 -7.49894638E-04  0.00000000E+00  0.00000000E+00  2.26474026E-16
  0.00000000E+00 -5.78183818E-03  0.00000000E+00  0.00000000E+00 -2.59646630E-16
  0.00000000E+00  9.98003521E-01  4.33409553E-02  1.56866670E-02  4.73813079E-03
  0.00000000E+00  0.00000000E+00  0.00000000E+00  0.00000000E+00  0.00000000E+00
  0.00000000E+00  0.00000000E+00  0.00000000E+00  0.00000000E+00  7.13924295E-03
  0.00000000E+00  0.00000000E+00  2.15235976E-16  0.00000000E+00 -4.90990001E-03
  0.00000000E+00  0.00000000E+00  1.14064342E-17  0.00000000E+00 -6.04467429E-05
  1.12845038E-03 -1.12433850E-02 -7.84958285E-03  0.00000000E+00  0.00000000E+00
 -1.18533122E-03  0.00000000E+00  0.00000000E+00 -1.44618720E-02  0.00000000E+00
  0.00000000E+00 -2.14654251E-03 -7.49894638E-04  0.00000000E+00  0.00000000E+00
  2.26474026E-16  0.00000000E+00 -5.78183818E-03  0.00000000E+00  0.00000000E+00
 -2.59646630E-16  0.00000000E+00 -1.33062441E-01  2.72511627E-01  2.42856053E-01
 -1.78016418E-02  0.00000000E+00  0.00000000E+00 -1.22921776E-01  0.00000000E+00
  0.00000000E+00 -2.90391863E-02  0.00000000E+00  0.00000000E+00  1.09059640E-02
  1.28667810E-02  0.00000000E+00  0.00000000E+00 -1.53084825E-16  0.00000000E+00
  5.75299468E-04  0.00000000E+00  0.00000000E+00  5.14523763E-16  0.00000000E+00
 -1.48851409E-01  2.94639075E-01  1.24801454E-01  1.66281712E-02  0.00000000E+00
  0.00000000E+00  0.00000000E+00  0.00000000E+00  0.00000000E+00  0.00000000E+00
  0.00000000E+00  0.00000000E+00  0.00000000E+00  5.34052951E-02  0.00000000E+00
  0.00000000E+00  4.16742584E-16  0.00000000E+00 -1.10836353E-02  0.00000000E+00
  0.00000000E+00 -1.35798402E-15  0.00000000E+00 -1.33062441E-01  2.72511627E-01
  2.42856053E-01 -1.78016418E-02  0.00000000E+00  0.00000000E+00  1.22921776E-01
  0.00000000E+00  0.00000000E+00  2.90391863E-02  0.00000000E+00  0.00000000E+00
 -1.09059640E-02  1.28667810E-02  0.00000000E+00  0.00000000E+00 -1.53084825E-16
  0.00000000E+00  5.75299468E-04  0.00000000E+00  0.00000000E+00  5.14523763E-16
  0.00000000E+00 -1.43370342E-01  3.11845225E-01  2.56146852E-01 -2.92877279E-03
  0.00000000E+00  0.00000000E+00 -1.31267162E-01  0.00000000E+00  0.00000000E+00
  3.47115155E-03  0.00000000E+00  0.00000000E+00 -1.90162781E-03  1.51342487E-02
  0.00000000E+00  0.00000000E+00  2.76565611E-16  0.00000000E+00 -2.50250858E-02
  0.00000000E+00  0.00000000E+00 -1.17291911E-15  0.00000000E+00  0.00000000E+00
  0.00000000E+00  0.00000000E+00  0.00000000E+00  0.00000000E+00  0.00000000E+00
  3.56951605E-01  0.00000000E+00  0.00000000E+00 -1.58426192E-02  0.00000000E+00
  0.00000000E+00  9.70091218E-03  0.00000000E+00  0.00000000E+00  0.00000000E+00
  0.00000000E+00  0.00000000E+00  0.00000000E+00  0.00000000E+00  0.00000000E+00
  0.00000000E+00  0.00000000E+00  1.43370342E-01 -3.11845225E-01 -2.56146852E-01
  2.92877279E-03  0.00000000E+00  0.00000000E+00 -1.31267162E-01  0.00000000E+00
  0.00000000E+00  3.47115155E-03  0.00000000E+00  0.00000000E+00 -1.90162781E-03
 -1.51342487E-02  0.00000000E+00  0.00000000E+00 -2.76565611E-16  0.00000000E+00
  2.50250858E-02  0.00000000E+00  0.00000000E+00  1.17291911E-15  0.00000000E+00
 -9.04059272E-02  2.02640510E-01  3.11260408E-01  9.51771110E-02  0.00000000E+00
  0.00000000E+00  3.26064595E-01  0.00000000E+00  0.00000000E+00  1.51175410E-01
  0.00000000E+00  0.00000000E+00  4.48792463E-03 -1.47887757E-02  0.00000000E+00
  0.00000000E+00  9.62607003E-16  0.00000000E+00 -6.60220732E-03  0.00000000E+00
  0.00000000E+00 -3.55540173E-15  0.00000000E+00  1.25886001E-01 -3.04076069E-01
 -2.40312865E-01 -5.28871914E-02  0.00000000E+00  0.00000000E+00  0.00000000E+00
  0.00000000E+00  0.00000000E+00  0.00000000E+00  0.00000000E+00  0.00000000E+00
  0.00000000E+00 -6.01862896E-03  0.00000000E+00  0.00000000E+00  3.98983902E-16
  0.00000000E+00 -2.29073360E-03  0.00000000E+00  0.00000000E+00  4.32823951E-15
  0.00000000E+00 -9.04059272E-02  2.02640510E-01  3.11260408E-01  9.51771110E-02
  0.00000000E+00  0.00000000E+00 -3.26064595E-01  0.00000000E+00  0.00000000E+00
 -1.51175410E-01  0.00000000E+00  0.00000000E+00 -4.48792463E-03 -1.47887757E-02
  0.00000000E+00  0.00000000E+00  9.62607003E-16  0.00000000E+00 -6.60220732E-03
  0.00000000E+00  0.00000000E+00 -3.55540173E-15  0.00000000E+00 -6.92178513E-02
  1.43692609E-01  2.90654868E-01  1.44323985E-01  0.00000000E+00  0.00000000E+00
  3.92330203E-01  0.00000000E+00  0.00000000E+00  1.37063731E-01  0.00000000E+00
  0.00000000E+00  4.60364329E-04 -1.93676650E-02  0.00000000E+00  0.00000000E+00
  4.07752710E-16  0.00000000E+00  1.83023723E-02  0.00000000E+00  0.00000000E+00
 -2.17368622E-16  0.00000000E+00  0.00000000E+00  0.00000000E+00  0.00000000E+00
  0.00000000E+00  0.00000000E+00  0.00000000E+00 -3.80843430E-01  0.00000000E+00
  0.00000000E+00 -7.22717266E-02  0.00000000E+00  0.00000000E+00 -3.11136129E-02
  0.00000000E+00  0.00000000E+00  0.00000000E+00  0.00000000E+00  0.00000000E+00
  0.00000000E+00  0.00000000E+00  0.00000000E+00  0.00000000E+00  0.00000000E+00
  6.92178513E-02 -1.43692609E-01 -2.90654868E-01 -1.44323985E-01  0.00000000E+00
  0.00000000E+00  3.92330203E-01  0.00000000E+00  0.00000000E+00  1.37063731E-01
  0.00000000E+00  0.00000000E+00  4.60364329E-04  1.93676650E-02  0.00000000E+00
  0.00000000E+00 -4.07752710E-16  0.00000000E+00 -1.83023723E-02  0.00000000E+00
  0.00000000E+00  2.17368622E-16  0.00000000E+00  0.00000000E+00  0.00000000E+00
  0.00000000E+00  0.00000000E+00  3.49270115E-01  0.00000000E+00  0.00000000E+00
  1.99263792E-01  0.00000000E+00  0.00000000E+00  1.51943027E-02  0.00000000E+00
  0.00000000E+00  0.00000000E+00 -2.17760901E-02  0.00000000E+00  0.00000000E+00
  0.00000000E+00  0.00000000E+00 -1.47281003E-02  0.00000000E+00  0.00000000E+00
  0.00000000E+00  0.00000000E+00  0.00000000E+00  0.00000000E+00  0.00000000E+00
  4.10348432E-01  0.00000000E+00  0.00000000E+00  1.22899407E-01  0.00000000E+00
  0.00000000E+00  5.12144122E-03  0.00000000E+00  0.00000000E+00  0.00000000E+00
  0.00000000E+00  0.00000000E+00  0.00000000E+00  0.00000000E+00  0.00000000E+00
  0.00000000E+00  0.00000000E+00  0.00000000E+00  0.00000000E+00  0.00000000E+00
  0.00000000E+00  0.00000000E+00  0.00000000E+00  3.49270115E-01  0.00000000E+00
  0.00000000E+00  1.99263792E-01  0.00000000E+00  0.00000000E+00  1.51943027E-02
  0.00000000E+00  0.00000000E+00  0.00000000E+00  2.17760901E-02  0.00000000E+00
  0.00000000E+00  0.00000000E+00  0.00000000E+00  1.47281003E-02  0.00000000E+00
  0.00000000E+00  0.00000000E+00  0.00000000E+00  0.00000000E+00  0.00000000E+00
  0.00000000E+00  0.00000000E+00  3.49270115E-01  0.00000000E+00  0.00000000E+00
  1.99263792E-01  0.00000000E+00  0.00000000E+00  1.51943027E-02  0.00000000E+00
  0.00000000E+00  0.00000000E+00 -2.17760901E-02  0.00000000E+00  0.00000000E+00
  0.00000000E+00  0.00000000E+00 -1.47281003E-02  0.00000000E+00  0.00000000E+00
  0.00000000E+00  0.00000000E+00  0.00000000E+00  0.00000000E+00  0.00000000E+00
  4.10348432E-01  0.00000000E+00  0.00000000E+00  1.22899407E-01  0.00000000E+00
  0.00000000E+00  5.12144122E-03  0.00000000E+00  0.00000000E+00  0.00000000E+00
  0.00000000E+00  0.00000000E+00  0.00000000E+00  0.00000000E+00  0.00000000E+00
  0.00000000E+00  0.00000000E+00  0.00000000E+00  0.00000000E+00  0.00000000E+00
  0.00000000E+00  0.00000000E+00  0.00000000E+00  3.49270115E-01  0.00000000E+00
  0.00000000E+00  1.99263792E-01  0.00000000E+00  0.00000000E+00  1.51943027E-02
  0.00000000E+00  0.00000000E+00  0.00000000E+00  2.17760901E-02  0.00000000E+00
  0.00000000E+00  0.00000000E+00  0.00000000E+00  1.47281003E-02  0.00000000E+00
  0.00000000E+00  0.00000000E+00  0.00000000E+00  0.00000000E+00  0.00000000E+00
  4.68179936E-01  0.00000000E+00  0.00000000E+00  2.71501255E-01  0.00000000E+00
  0.00000000E+00  4.86103421E-02  0.00000000E+00  0.00000000E+00  0.00000000E+00
 -1.23236709E-02  0.00000000E+00  0.00000000E+00  0.00000000E+00  0.00000000E+00
  2.54605588E-03  0.00000000E+00  0.00000000E+00  0.00000000E+00  0.00000000E+00
  0.00000000E+00  0.00000000E+00  0.00000000E+00  0.00000000E+00  0.00000000E+00
  0.00000000E+00  0.00000000E+00  0.00000000E+00  0.00000000E+00  0.00000000E+00
  0.00000000E+00  0.00000000E+00  0.00000000E+00  8.68260899E-02  0.00000000E+00
  0.00000000E+00  0.00000000E+00  0.00000000E+00  3.86139400E-02  0.00000000E+00
  0.00000000E+00  0.00000000E+00  0.00000000E+00  0.00000000E+00  0.00000000E+00
  0.00000000E+00 -4.68179936E-01  0.00000000E+00  0.00000000E+00 -2.71501255E-01
  0.00000000E+00  0.00000000E+00 -4.86103421E-02  0.00000000E+00  0.00000000E+00
  0.00000000E+00 -1.23236709E-02  0.00000000E+00  0.00000000E+00  0.00000000E+00
  0.00000000E+00  2.54605588E-03  0.00000000E+00  0.00000000E+00  0.00000000E+00
  0.00000000E+00  0.00000000E+00  0.00000000E+00  0.00000000E+00  0.00000000E+00
  4.68179936E-01  0.00000000E+00  0.00000000E+00  2.71501255E-01  0.00000000E+00
  0.00000000E+00  4.86103421E-02  0.00000000E+00  0.00000000E+00  0.00000000E+00
 -1.23236709E-02  0.00000000E+00  0.00000000E+00  0.00000000E+00  0.00000000E+00
  2.54605588E-03  0.00000000E+00  0.00000000E+00  0.00000000E+00  0.00000000E+00
  0.00000000E+00  0.00000000E+00  0.00000000E+00  0.00000000E+00  0.00000000E+00
  0.00000000E+00  0.00000000E+00  0.00000000E+00  0.00000000E+00  0.00000000E+00
  0.00000000E+00  0.00000000E+00  0.00000000E+00  8.68260899E-02  0.00000000E+00
  0.00000000E+00  0.00000000E+00  0.00000000E+00  3.86139400E-02  0.00000000E+00
  0.00000000E+00  0.00000000E+00  0.00000000E+00  0.00000000E+00  0.00000000E+00
  0.00000000E+00 -4.68179936E-01  0.00000000E+00  0.00000000E+00 -2.71501255E-01
  0.00000000E+00  0.00000000E+00 -4.86103421E-02  0.00000000E+00  0.00000000E+00
  0.00000000E+00 -1.23236709E-02  0.00000000E+00  0.00000000E+00  0.00000000E+00
  0.00000000E+00  2.54605588E-03  0.00000000E+00  0.00000000E+00  5.01255664E-02
 -1.18404295E-01 -3.17147053E-01 -8.66055887E-01  0.00000000E+00  0.00000000E+00
  1.15094704E-01  0.00000000E+00  0.00000000E+00  1.55565208E-01  0.00000000E+00
  0.00000000E+00  2.25259872E-01 -6.49334981E-03  0.00000000E+00  0.00000000E+00
 -1.33076030E-15  0.00000000E+00 -2.39290925E-02  0.00000000E+00  0.00000000E+00
  6.95531647E-15  0.00000000E+00 -2.99064490E-02  4.68728839E-02  7.32503022E-01
  2.23404702E+00  0.00000000E+00  0.00000000E+00  0.00000000E+00  0.00000000E+00
  0.00000000E+00  0.00000000E+00  0.00000000E+00  0.00000000E+00  0.00000000E+00
 -5.18021743E-02  0.00000000E+00  0.00000000E+00  1.69312451E-14  0.00000000E+00
  1.19861207E-02  0.00000000E+00  0.00000000E+00 -5.79071762E-14  0.00000000E+00
  5.01255664E-02 -1.18404295E-01 -3.17147053E-01 -8.66055887E-01  0.00000000E+00
  0.00000000E+00 -1.15094704E-01  0.00000000E+00  0.00000000E+00 -1.55565208E-01
  0.00000000E+00  0.00000000E+00 -2.25259872E-01 -6.49334981E-03  0.00000000E+00
  0.00000000E+00 -1.33076030E-15  0.00000000E+00 -2.39290925E-02  0.00000000E+00
  0.00000000E+00  6.95531647E-15  0.00000000E+00  0.00000000E+00  0.00000000E+00
  0.00000000E+00  0.00000000E+00 -3.64713389E-01  0.00000000E+00  0.00000000E+00
 -3.47108221E-01  0.00000000E+00  0.00000000E+00 -3.55935608E-01  0.00000000E+00
  0.00000000E+00  0.00000000E+00 -1.22808063E-02  0.00000000E+00  0.00000000E+00
  0.00000000E+00  0.00000000E+00 -8.41550537E-03  0.00000000E+00  0.00000000E+00
  0.00000000E+00  0.00000000E+00  0.00000000E+00  0.00000000E+00  0.00000000E+00
  5.83513341E-01  0.00000000E+00  0.00000000E+00  6.60510495E-01  0.00000000E+00
  0.00000000E+00  5.82765772E-01  0.00000000E+00  0.00000000E+00  0.00000000E+00
  0.00000000E+00  0.00000000E+00  0.00000000E+00  0.00000000E+00  0.00000000E+00
  0.00000000E+00  0.00000000E+00  0.00000000E+00  0.00000000E+00  0.00000000E+00
  0.00000000E+00  0.00000000E+00  0.00000000E+00 -3.64713389E-01  0.00000000E+00
  0.00000000E+00 -3.47108221E-01  0.00000000E+00  0.00000000E+00 -3.55935608E-01
  0.00000000E+00  0.00000000E+00  0.00000000E+00  1.22808063E-02  0.00000000E+00
  0.00000000E+00  0.00000000E+00  0.00000000E+00  8.41550537E-03  0.00000000E+00
  0.00000000E+00  0.00000000E+00  0.00000000E+00  0.00000000E+00  0.00000000E+00
  0.00000000E+00  0.00000000E+00 -3.64713389E-01  0.00000000E+00  0.00000000E+00
 -3.47108221E-01  0.00000000E+00  0.00000000E+00 -3.55935608E-01  0.00000000E+00
  0.00000000E+00  0.00000000E+00 -1.22808063E-02  0.00000000E+00  0.00000000E+00
  0.00000000E+00  0.00000000E+00 -8.41550537E-03  0.00000000E+00  0.00000000E+00
  0.00000000E+00  0.00000000E+00  0.00000000E+00  0.00000000E+00  0.00000000E+00
  5.83513341E-01  0.00000000E+00  0.00000000E+00  6.60510495E-01  0.00000000E+00
  0.00000000E+00  5.82765772E-01  0.00000000E+00  0.00000000E+00  0.00000000E+00
  0.00000000E+00  0.00000000E+00  0.00000000E+00  0.00000000E+00  0.00000000E+00
  0.00000000E+00  0.00000000E+00  0.00000000E+00  0.00000000E+00  0.00000000E+00
  0.00000000E+00  0.00000000E+00  0.00000000E+00 -3.64713389E-01  0.00000000E+00
  0.00000000E+00 -3.47108221E-01  0.00000000E+00  0.00000000E+00 -3.55935608E-01
  0.00000000E+00  0.00000000E+00  0.00000000E+00  1.22808063E-02  0.00000000E+00
  0.00000000E+00  0.00000000E+00  0.00000000E+00  8.41550537E-03  0.00000000E+00
  0.00000000E+00  2.64164820E-02 -5.80202727E-02 -2.62410512E-01 -1.67332834E+00
  0.00000000E+00  0.00000000E+00 -6.15273306E-02  0.00000000E+00  0.00000000E+00
  8.05691710E-02  0.00000000E+00  0.00000000E+00  2.02931782E-01  3.74372943E-04
  0.00000000E+00  0.00000000E+00 -1.13090463E-15  0.00000000E+00 -5.67766824E-03
  0.00000000E+00  0.00000000E+00 -5.23523056E-15  0.00000000E+00  0.00000000E+00
  0.00000000E+00  0.00000000E+00  0.00000000E+00  0.00000000E+00  0.00000000E+00
  5.35346200E-02  0.00000000E+00  0.00000000E+00  5.98501987E-01  0.00000000E+00
  0.00000000E+00  1.97997259E+00  0.00000000E+00  0.00000000E+00  0.00000000E+00
  0.00000000E+00  0.00000000E+00  0.00000000E+00  0.00000000E+00  0.00000000E+00
  0.00000000E+00  0.00000000E+00 -2.64164820E-02  5.80202727E-02  2.62410512E-01
  1.67332834E+00  0.00000000E+00  0.00000000E+00 -6.15273306E-02  0.00000000E+00
  0.00000000E+00  8.05691710E-02  0.00000000E+00  0.00000000E+00  2.02931782E-01
 -3.74372943E-04  0.00000000E+00  0.00000000E+00  1.13090463E-15  0.00000000E+00
  5.67766824E-03  0.00000000E+00  0.00000000E+00  5.23523056E-15  0.00000000E+00
  0.00000000E+00  0.00000000E+00  0.00000000E+00  0.00000000E+00  3.32413247E-03
  0.00000000E+00  0.00000000E+00  5.19587295E-02  0.00000000E+00  0.00000000E+00