hno                                                                     
FOpt      RB3LYP                                                      Aug-CC-pVDZ         
Number of atoms                            I                3
Info1-9                                    I   N=           9
          12          11           0           0           0         110
           2          18        -502
Charge                                     I                0
Multiplicity                               I                1
Number of electrons                        I               16
Number of alpha electrons                  I                8
Number of beta electrons                   I                8
Number of basis functions                  I               55
Number of independent functions            I               55
Number of point charges in /Mol/           I                0
Number of translation vectors              I                0
Atomic numbers                             I   N=           3
           1           7           8
Nuclear charges                            R   N=           3
  1.00000000E+00  7.00000000E+00  8.00000000E+00
Current cartesian coordinates              R   N=           9
 -1.79111902E+00  1.74196460E+00  3.15544362E-30  1.19407935E-01  1.09853792E+00
  2.95822839E-31  1.19407935E-01 -1.17896625E+00 -8.38164712E-31
Force Field                                I                0
Int Atom Types                             I   N=           3
           0           0           0
MM charges                                 R   N=           3
  0.00000000E+00  0.00000000E+00  0.00000000E+00
Integer atomic weights                     I   N=           3
           1          14          16
Real atomic weights                        R   N=           3
  1.00782504E+00  1.40030740E+01  1.59949146E+01
Atom fragment info                         I   N=           3
           0           0           0
Atom residue num                           I   N=           3
           0           0           0
Nuclear spins                              I   N=           3
           1           2           0
Nuclear ZEff                               R   N=           3
 -1.00000000E+00 -4.55000000E+00 -5.60000000E+00
Nuclear QMom                               R   N=           3
  0.00000000E+00  2.04400000E+00  0.00000000E+00
Nuclear GFac                               R   N=           3
  2.79284600E+00  4.03761000E-01  0.00000000E+00
MicOpt                                     I   N=           3
          -1          -1          -1
Number of contracted shells                I               23
Number of primitive shells                 I               53
Pure/Cartesian d shells                    I                0
Pure/Cartesian f shells                    I                0
Highest angular momentum                   I                2
Largest degree of contraction              I                7
Shell types                                I   N=          23
           0           0           0           1           1           0
           0           0           0           1           1           1
          -2          -2           0           0           0           0
           1           1           1          -2          -2
Number of primitives per shell             I   N=          23
           3           1           1           1           1           7
           7           1           1           3           1           1
           1           1           7           7           1           1
           3           1           1           1           1
Shell to atom map                          I   N=          23
           1           1           1           1           1           2
           2           2           2           2           2           2
           2           2           3           3           3           3
           3           3           3           3           3
Primitive exponents                        R   N=          53
  1.30100000E+01  1.96200000E+00  4.44600000E-01  1.22000000E-01  2.97400000E-02
  7.27000000E-01  1.41000000E-01  9.04600000E+03  1.35700000E+03  3.09300000E+02
  8.77300000E+01  2.85600000E+01  1.02100000E+01  3.83800000E+00  9.04600000E+03
  3.09300000E+02  8.77300000E+01  2.85600000E+01  1.02100000E+01  3.83800000E+00
  7.46600000E-01  2.24800000E-01  6.12400000E-02  1.35500000E+01  2.91700000E+00
  7.97300000E-01  2.18500000E-01  5.61100000E-02  8.17000000E-01  2.30000000E-01
  1.17200000E+04  1.75900000E+03  4.00800000E+02  1.13700000E+02  3.70300000E+01
  1.32700000E+01  5.02500000E+00  1.17200000E+04  4.00800000E+02  1.13700000E+02
  3.70300000E+01  1.32700000E+01  5.02500000E+00  1.01300000E+00  3.02300000E-01
  7.89600000E-02  1.77000000E+01  3.85400000E+00  1.04600000E+00  2.75300000E-01
  6.85600000E-02  1.18500000E+00  3.32000000E-01
Contraction coefficients                   R   N=          53
  3.34987264E-02  2.34800801E-01  8.13682958E-01  1.00000000E+00  1.00000000E+00
  1.00000000E+00  1.00000000E+00  7.01708743E-04  5.40299880E-03  2.74729510E-02
  1.03514580E-01  2.79586579E-01  4.51317241E-01  2.80626875E-01  7.77446797E-06
  3.00742072E-04 -2.80016549E-03 -9.89708505E-03 -1.14331114E-01 -1.18162383E-01
  1.09786885E+00  1.00000000E+00  1.00000000E+00  5.89056768E-02  3.20461107E-01
  7.53042062E-01  1.00000000E+00  1.00000000E+00  1.00000000E+00  1.00000000E+00
  7.11864434E-04  5.48520199E-03  2.79099296E-02  1.05133208E-01  2.84002490E-01
  4.51673946E-01  2.73208126E-01  7.69030046E-06  3.13484579E-04 -2.96614853E-03
 -1.08753543E-02 -1.20753817E-01 -1.06275264E-01  1.09597548E+00  1.00000000E+00
  1.00000000E+00  6.26791663E-02  3.33536566E-01  7.41239642E-01  1.00000000E+00
  1.00000000E+00  1.00000000E+00  1.00000000E+00
Coordinates of each shell                  R   N=          69
 -1.79111902E+00  1.74196460E+00  7.88860905E-31 -1.79111902E+00  1.74196460E+00
  7.88860905E-31 -1.79111902E+00  1.74196460E+00  7.88860905E-31 -1.79111902E+00
  1.74196460E+00  7.88860905E-31 -1.79111902E+00  1.74196460E+00  7.88860905E-31
  1.19407935E-01  1.09853792E+00  2.46519033E-31  1.19407935E-01  1.09853792E+00
  2.46519033E-31  1.19407935E-01  1.09853792E+00  2.46519033E-31  1.19407935E-01
  1.09853792E+00  2.46519033E-31  1.19407935E-01  1.09853792E+00  2.46519033E-31
  1.19407935E-01  1.09853792E+00  2.46519033E-31  1.19407935E-01  1.09853792E+00
  2.46519033E-31  1.19407935E-01  1.09853792E+00  2.46519033E-31  1.19407935E-01
  1.09853792E+00  2.46519033E-31  1.19407935E-01 -1.17896625E+00 -9.86076132E-32
  1.19407935E-01 -1.17896625E+00 -9.86076132E-32  1.19407935E-01 -1.17896625E+00
 -9.86076132E-32  1.19407935E-01 -1.17896625E+00 -9.86076132E-32  1.19407935E-01
 -1.17896625E+00 -9.86076132E-32  1.19407935E-01 -1.17896625E+00 -9.86076132E-32
  1.19407935E-01 -1.17896625E+00 -9.86076132E-32  1.19407935E-01 -1.17896625E+00
 -9.86076132E-32  1.19407935E-01 -1.17896625E+00 -9.86076132E-32
Constraint Structure                       R   N=           9
 -1.68366215E+00  1.91806592E+00  2.46519033E-32  1.12244143E-01  1.28312416E+00
  2.77333912E-32  1.12244143E-01 -1.36249188E+00 -3.69778549E-32
Num ILSW                                   I              100
ILSW                                       I   N=         100
           0           0           0           0           2           0
           0           0           0           0         402          -1
           0           0           0           0           2           0
           0           0           0           0           1           0
           1           0           0           0           0           0
           0           0      100000           0          -1           0
           0           0           0           0           0           0
           0           0           0           1           0           0
           0           0           1           0           0           0
           0           0           4          40           0           0
           0           0           5           0           0           0
           0           0           0           0           0           0
           0           0           0           0           0           0
           0           0           0           0           0           0
           0           0           0           0           0           0
           0           0           0           0           0           0
           0           0           0           0
Num RLSW                                   I               40
RLSW                                       R   N=          40
  8.00000000E-01  7.20000000E-01  1.00000000E+00  8.10000000E-01  2.00000000E-01
  0.00000000E+00  0.00000000E+00  1.00000000E+00  0.00000000E+00  0.00000000E+00
  0.00000000E+00  0.00000000E+00  1.00000000E+00  0.00000000E+00  0.00000000E+00
  0.00000000E+00  0.00000000E+00  1.00000000E+00  0.00000000E+00  0.00000000E+00
  0.00000000E+00  0.00000000E+00  1.00000000E+00  0.00000000E+00  0.00000000E+00
  0.00000000E+00  0.00000000E+00  1.00000000E+00  0.00000000E+00  0.00000000E+00
  0.00000000E+00  0.00000000E+00  1.00000000E+00  0.00000000E+00  0.00000000E+00
  0.00000000E+00  0.00000000E+00  0.00000000E+00  1.00000000E+00  1.00000000E+00
MxBond                                     I                2
NBond                                      I   N=           3
           1           2           1
IBond                                      I   N=           6
           2           0           1           3           2           0
RBond                                      R   N=           6
  1.00000000E+00  0.00000000E+00  1.00000000E+00  1.00000000E+00  1.00000000E+00
  0.00000000E+00
Virial Ratio                               R      2.006066213350609E+00
SCF Energy                                 R     -1.304966950350006E+02
Total Energy                               R     -1.304966950350006E+02
RMS Force                                  R      1.676059425714543E-04
RMS Density                                R      6.479657171900656E-09
External E-field                           R   N=          35
  0.00000000E+00  0.00000000E+00  0.00000000E+00  0.00000000E+00  0.00000000E+00
  0.00000000E+00  0.00000000E+00  0.00000000E+00  0.00000000E+00  0.00000000E+00
  0.00000000E+00  0.00000000E+00  0.00000000E+00  0.00000000E+00  0.00000000E+00
  0.00000000E+00  0.00000000E+00  0.00000000E+00  0.00000000E+00  0.00000000E+00
  0.00000000E+00  0.00000000E+00  0.00000000E+00  0.00000000E+00  0.00000000E+00
  0.00000000E+00  0.00000000E+00  0.00000000E+00  0.00000000E+00  0.00000000E+00
  0.00000000E+00  0.00000000E+00  0.00000000E+00  0.00000000E+00  0.00000000E+00
IOpCl                                      I                0
IROHF                                      I                0
Alpha Orbital Energies                     R   N=          55
 -1.92441016E+01 -1.44732755E+01 -1.19304583E+00 -7.38443007E-01 -5.46526959E-01
 -4.76462864E-01 -4.65510058E-01 -2.57578892E-01 -1.23112939E-01 -1.50243041E-02
  4.93245356E-02  7.67218423E-02  8.25377143E-02  1.10320005E-01  1.45469923E-01
  1.65629530E-01  1.70892027E-01  1.87240521E-01  2.57839154E-01  2.66391536E-01
  3.45939999E-01  3.79301704E-01  4.46213755E-01  5.45980035E-01  5.91957916E-01
  6.44357799E-01  6.61205124E-01  7.44771548E-01  7.74044431E-01  8.32999334E-01
  8.53516530E-01  9.23593072E-01  9.74327276E-01  9.93534509E-01  9.95086640E-01
  1.09615936E+00  1.24031108E+00  1.38423127E+00  1.46671382E+00  1.64096423E+00
  1.66733485E+00  1.81583381E+00  1.95470550E+00  1.97138276E+00  2.15655223E+00
  2.28260220E+00  2.28679009E+00  2.45534401E+00  2.75039506E+00  3.09290203E+00
  3.17956550E+00  3.26646848E+00  3.41433253E+00  3.46706339E+00  3.60122090E+00
Alpha MO coefficients                      R   N=        3025
 -2.91937880E-04  3.30672159E-03 -4.30733687E-04 -4.57293941E-04  5.60039899E-04
  0.00000000E+00  1.39843698E-03  3.25027055E-04  0.00000000E+00 -5.79251955E-05
 -1.07563069E-03  2.74670217E-02  7.66589952E-03 -3.47626668E-04 -8.73570219E-04
  0.00000000E+00  1.68235074E-04 -2.17995302E-02  0.00000000E+00  5.32585250E-04
 -2.23417679E-03  0.00000000E+00  2.02305394E-05  0.00000000E+00  0.00000000E+00
  4.73697796E-04 -1.89085905E-04 -3.27191933E-03  0.00000000E+00  0.00000000E+00
 -5.79908488E-03  1.05292715E-03  9.96967660E-01  2.70186296E-02 -3.93539440E-02
 -1.10474405E-02 -1.24359974E-04  2.21171642E-03  0.00000000E+00  8.21105201E-04
 -1.85636625E-02  0.00000000E+00 -2.25140996E-04 -1.89137808E-03  0.00000000E+00
 -1.81719400E-04  0.00000000E+00  0.00000000E+00 -3.65272840E-04 -2.11110978E-05
  2.08470932E-03  0.00000000E+00  0.00000000E+00  3.79624558E-03  2.71746260E-04
  3.92692750E-04  1.33407157E-02  1.46848392E-03 -1.06158610E-03  1.91914734E-04
  0.00000000E+00  5.61319998E-03 -1.77481554E-03  0.00000000E+00  9.96723119E-01
  2.71023139E-02 -1.96861883E-02 -7.11144037E-03 -2.08065941E-03 -2.35739498E-03
  0.00000000E+00  4.86309175E-03  9.59004179E-04  0.00000000E+00  1.88010049E-03
 -3.38639911E-05  0.00000000E+00 -7.55309822E-04  0.00000000E+00  0.00000000E+00
 -5.30150371E-04 -3.45222349E-04  1.31279811E-03  0.00000000E+00  0.00000000E+00
  1.07849057E-03  3.75092592E-04  6.34095259E-05  3.98934172E-04  1.43592290E-03
  1.68871553E-03 -4.40070658E-05 -3.99085706E-04  0.00000000E+00 -6.01367208E-05
 -1.15833225E-03  0.00000000E+00  4.55359361E-05  4.32809433E-04  0.00000000E+00
  4.44141513E-04  0.00000000E+00  0.00000000E+00  7.97812857E-04  7.38341532E-06
  8.80271893E-04  0.00000000E+00  0.00000000E+00  1.35967991E-03 -2.54601128E-04
  6.67851833E-02 -2.86767018E-02 -2.61946849E-03  1.37833590E-02 -7.63753524E-03
  0.00000000E+00 -1.38070459E-02  3.90418947E-03  0.00000000E+00 -1.27891461E-01
  2.78443899E-01  1.24943723E-01  1.66387710E-02 -2.62005671E-02 -1.88289491E-01
  0.00000000E+00 -4.14768392E-04  3.36567823E-03  0.00000000E+00 -5.75957546E-03
  1.70384504E-03  0.00000000E+00 -1.20922196E-02  0.00000000E+00  0.00000000E+00
 -2.45314309E-02  3.78666059E-03  1.03313558E-02  0.00000000E+00  0.00000000E+00
  3.68741144E-03  1.41742960E-03 -1.72551176E-01  3.64215059E-01  3.65651740E-01
  2.05108717E-03 -6.86014753E-03  1.79418560E-01  0.00000000E+00 -7.98186281E-03
  8.11472255E-02  0.00000000E+00  3.25385094E-04 -8.92451103E-03  0.00000000E+00
 -6.05917573E-03  0.00000000E+00  0.00000000E+00 -1.63772473E-02 -1.11072083E-03
 -5.11703578E-03  0.00000000E+00  0.00000000E+00 -8.61214424E-03 -2.87369454E-03
 -2.77281029E-01 -4.86761967E-02  1.43592832E-03 -3.03579899E-02  7.66906727E-03
  0.00000000E+00 -2.43867555E-03  2.36187990E-03  0.00000000E+00  1.48344108E-01
 -3.38284030E-01 -3.67065736E-01 -7.06367504E-02  1.67299727E-01 -1.46368733E-01
  0.00000000E+00  1.40666091E-02  1.44146442E-02  0.00000000E+00  2.84159659E-03
  1.55704573E-02  0.00000000E+00 -2.35077491E-03  0.00000000E+00  0.00000000E+00
 -1.83343950E-02  2.32046753E-03 -2.51987236E-03  0.00000000E+00  0.00000000E+00
  3.79507168E-02 -3.96508193E-03 -1.25983341E-01  2.79008403E-01  4.16760245E-01
  1.05747786E-01  4.96513194E-02 -1.23357889E-01  0.00000000E+00  3.01687821E-02
 -2.06336144E-02  0.00000000E+00 -2.07346653E-03  1.05669394E-02  0.00000000E+00
  5.77882500E-03  0.00000000E+00  0.00000000E+00  6.11951414E-03  5.27681482E-03
  7.12815392E-03  0.00000000E+00  0.00000000E+00  4.77818219E-04  8.30590476E-03
 -2.36013814E-01 -9.47334855E-02 -8.13200177E-03 -1.64693427E-02  4.64410139E-03
  0.00000000E+00 -1.08849578E-02  1.15542018E-02  0.00000000E+00 -3.34012991E-02
  8.86630209E-02  1.23009956E-01  8.37563488E-02  2.94329375E-01 -2.57560138E-01
  0.00000000E+00  8.67132254E-02 -8.10210901E-02  0.00000000E+00  4.85485221E-03
 -2.09626463E-02  0.00000000E+00 -1.05632758E-03  0.00000000E+00  0.00000000E+00
 -2.59958422E-02 -9.18935666E-03 -4.32881752E-03  0.00000000E+00  0.00000000E+00
  1.09556087E-02  3.30615277E-03  7.39873079E-02 -1.55881739E-01 -2.63490417E-01
 -1.35073031E-01  2.16478528E-01  3.89203019E-01  0.00000000E+00  1.30731281E-01
  1.68607248E-01  0.00000000E+00  6.42247412E-03 -4.96658669E-03  0.00000000E+00
 -8.92017899E-03  0.00000000E+00  0.00000000E+00 -1.38671457E-02  1.29024164E-02
  2.05052954E-03  0.00000000E+00  0.00000000E+00 -2.30314256E-03  1.59871045E-02
  0.00000000E+00  0.00000000E+00  0.00000000E+00  0.00000000E+00  0.00000000E+00
  1.11043839E-02  0.00000000E+00  0.00000000E+00  2.81152113E-03  0.00000000E+00
  0.00000000E+00  0.00000000E+00  0.00000000E+00  0.00000000E+00  0.00000000E+00
  4.01533750E-01  0.00000000E+00  0.00000000E+00  2.07797361E-01  0.00000000E+00
  0.00000000E+00  1.59160341E-02  0.00000000E+00 -8.73350127E-03 -3.51427047E-02
  0.00000000E+00  0.00000000E+00  0.00000000E+00 -1.10671814E-02 -1.21758879E-03
  0.00000000E+00  0.00000000E+00  0.00000000E+00  0.00000000E+00  0.00000000E+00
  0.00000000E+00  0.00000000E+00  0.00000000E+00  4.83590174E-01  0.00000000E+00
  0.00000000E+00  2.93177440E-01  0.00000000E+00  0.00000000E+00  3.24034850E-02
  0.00000000E+00 -8.04826419E-04  2.45494243E-02  0.00000000E+00  0.00000000E+00
  0.00000000E+00 -2.14251201E-03  2.73394120E-02  0.00000000E+00  0.00000000E+00
 -1.64161428E-03  8.99632596E-03  6.20287951E-04  4.50865140E-03  9.01007631E-03
  0.00000000E+00  6.01657253E-03  7.47051617E-03  0.00000000E+00 -6.24667606E-02
  1.33886072E-01  2.09100453E-01 -3.87619042E-03  2.67016902E-01  3.28184869E-01
  0.00000000E+00  1.33187021E-01  1.56597228E-01  0.00000000E+00  1.25392523E-02
  2.33327205E-02  0.00000000E+00  1.36967165E-02  0.00000000E+00  0.00000000E+00
  1.02295739E-02 -3.28514382E-02  6.69693500E-03  0.00000000E+00  0.00000000E+00
 -2.71257201E-03 -7.44806178E-03 -2.54467558E-02  4.57786165E-02  1.16875638E-01
  9.44460044E-02  3.66240056E-01 -2.85958910E-01  0.00000000E+00  2.12774234E-01
 -1.31046496E-01  0.00000000E+00  2.41032781E-02  3.15138046E-03  0.00000000E+00
  5.73688627E-03  0.00000000E+00  0.00000000E+00  7.83081506E-03  1.68404656E-02
  1.40792632E-03  0.00000000E+00  0.00000000E+00 -2.97700716E-03  1.42420014E-02
  2.84686870E-01  1.95047834E-01  3.87516376E-02  6.20398227E-03 -8.32310493E-03
  0.00000000E+00 -2.31680432E-02  1.27215716E-02  0.00000000E+00  5.63547816E-02
 -1.25181595E-01 -2.69082930E-01 -1.62829964E-01 -3.37518589E-01 -1.47066846E-01
  0.00000000E+00 -2.07645271E-01 -9.52875984E-02  0.00000000E+00 -7.21205021E-02
 -2.56960605E-02  0.00000000E+00 -1.45442925E-02  0.00000000E+00  0.00000000E+00
  9.19228765E-03 -2.14000112E-02  6.51925111E-05  0.00000000E+00  0.00000000E+00
  1.17614541E-03 -2.01749458E-03 -4.94182650E-03  1.75515434E-02  1.53847807E-02
  1.05791500E-02  5.22504504E-01  6.43428073E-02  0.00000000E+00  3.68397578E-01
  3.74901383E-02  0.00000000E+00  1.26823944E-01  1.42825861E-02  0.00000000E+00
 -9.71411444E-04  0.00000000E+00  0.00000000E+00 -1.45154981E-03  1.90894089E-03
 -7.64196381E-04  0.00000000E+00  0.00000000E+00  9.24547887E-04  2.14212524E-03
  0.00000000E+00  0.00000000E+00  0.00000000E+00  0.00000000E+00  0.00000000E+00
  2.15954505E-02  0.00000000E+00  0.00000000E+00  4.26296733E-02  0.00000000E+00
  0.00000000E+00  0.00000000E+00  0.00000000E+00  0.00000000E+00  0.00000000E+00
  5.13947813E-01  0.00000000E+00  0.00000000E+00  4.16364517E-01  0.00000000E+00
  0.00000000E+00  2.26550110E-01  0.00000000E+00 -1.32006565E-02  1.39498926E-02
  0.00000000E+00  0.00000000E+00  0.00000000E+00 -1.29799170E-02  1.12684845E-02
  0.00000000E+00  0.00000000E+00  0.00000000E+00  0.00000000E+00  0.00000000E+00
  0.00000000E+00  0.00000000E+00  0.00000000E+00 -4.71931771E-01  0.00000000E+00
  0.00000000E+00 -3.73634072E-01  0.00000000E+00  0.00000000E+00 -2.18436866E-01
  0.00000000E+00 -1.53604094E-04  6.85807434E-03  0.00000000E+00  0.00000000E+00
  0.00000000E+00  4.09365905E-03  1.68393447E-03  0.00000000E+00  0.00000000E+00
  5.33829158E-02  4.60434024E-01  1.40565425E+00 -2.05708627E-02  4.59543080E-03
  0.00000000E+00 -2.64914150E-02  2.79482693E-02  0.00000000E+00  4.08595312E-02
 -1.07334362E-01 -2.95431578E-01 -1.01026848E+00  1.69091576E-01 -7.82761784E-02
  0.00000000E+00  1.71911984E-01 -3.29460971E-02  0.00000000E+00  2.20321279E-01
 -2.18458577E-02  0.00000000E+00 -1.12747624E-03  0.00000000E+00  0.00000000E+00
 -1.15949612E-03 -3.07813245E-03  1.70965414E-02  0.00000000E+00  0.00000000E+00
  8.13801571E-03  1.59376142E-02  1.13793501E-02 -3.21446802E-02 -3.67669074E-02
  2.20031502E-01 -3.25253897E-02  5.47302081E-02  0.00000000E+00 -2.76944762E-02
  6.10332708E-02  0.00000000E+00 -6.17381305E-02  1.54451809E-01  0.00000000E+00
  5.51402184E-04  0.00000000E+00  0.00000000E+00  2.87035837E-03  4.56466233E-03
  8.11566557E-04  0.00000000E+00  0.00000000E+00  3.95674298E-03  8.05887700E-03
  4.49898233E-04 -2.13148565E-01  1.78074227E-01  1.37990051E-04  9.67813548E-03
  0.00000000E+00 -1.58891575E-01  9.75350879E-02  0.00000000E+00  2.01890156E-02
 -2.88709486E-02 -5.04316837E-01 -3.82698036E+00  4.67767336E-02  5.46772561E-02
  0.00000000E+00 -1.97426853E-02  5.23011840E-01  0.00000000E+00 -1.77351508E-01
  1.93346063E+00  0.00000000E+00 -3.90115502E-03  0.00000000E+00  0.00000000E+00
 -8.37123850E-03 -2.52164838E-03  4.45452661E-02  0.00000000E+00  0.00000000E+00
  9.72425151E-02 -2.64199713E-02 -5.06185337E-02  1.09272058E-01  5.45804745E-01
  3.85727239E+00 -1.64057309E-02  8.25516866E-03  0.00000000E+00 -4.59149958E-02
  3.36113725E-01  0.00000000E+00  8.79013256E-02  1.20488182E+00  0.00000000E+00
  3.04959176E-03  0.00000000E+00  0.00000000E+00  2.45285365E-03  1.14607017E-03
 -4.36565764E-02  0.00000000E+00  0.00000000E+00 -6.64588223E-02 -3.60810935E-03
  5.06832959E-02 -8.69561290E-01 -1.07081534E+00 -3.25191108E-02  4.85314435E-03
  0.00000000E+00 -3.27574991E-01  1.89121409E-01  0.00000000E+00 -8.33760589E-03
 -1.67894300E-02  2.60600402E-01  1.67167414E+00  2.64428060E-01  1.24580576E-02
  0.00000000E+00  7.62262652E-02  1.63968908E-01  0.00000000E+00 -1.41940665E+00
 -5.33387203E-01  0.00000000E+00  8.68296776E-03  0.00000000E+00  0.00000000E+00
  3.13077761E-04 -1.69487967E-02 -3.20121249E-02  0.00000000E+00  0.00000000E+00
  9.42383992E-02 -2.53337994E-03 -3.28600777E-04 -1.56928241E-02  1.29584422E-01
 -5.60818357E-01  1.89449373E-02 -2.42820886E-02  0.00000000E+00  1.61623593E-02
  4.14716970E-02  0.00000000E+00  6.15750782E-02  1.47412630E-01  0.00000000E+00
  1.59763987E-03  0.00000000E+00  0.00000000E+00  1.20255966E-03  1.06736044E-02
 -5.42503390E-03  0.00000000E+00  0.00000000E+00 -5.40961659E-03  1.12946596E-02
  0.00000000E+00  0.00000000E+00  0.00000000E+00  0.00000000E+00  0.00000000E+00
  8.14480446E-03  0.00000000E+00  0.00000000E+00 -9.30574058E-02  0.00000000E+00
  0.00000000E+00  0.00000000E+00  0.00000000E+00  0.00000000E+00  0.00000000E+00
 -2.21204975E-01  0.00000000E+00  0.00000000E+00 -2.85016195E-01  0.00000000E+00
  0.00000000E+00  1.20476658E+00  0.00000000E+00  1.20914725E-02  1.41685031E-02
  0.00000000E+00  0.00000000E+00  0.00000000E+00 -4.70186356E-02  2.13260332E-02
  0.00000000E+00  0.00000000E+00  0.00000000E+00  0.00000000E+00  0.00000000E+00
  0.00000000E+00  0.00000000E+00  0.00000000E+00 -5.26196995E-02  0.00000000E+00
  0.00000000E+00 -2.82936586E-02  0.00000000E+00  0.00000000E+00 -4.36737810E-02
  0.00000000E+00 -2.44470037E-04 -1.15570397E-02  0.00000000E+00  0.00000000E+00
  0.00000000E+00  4.99957881E-03  5.55006251E-03  0.00000000E+00  0.00000000E+00
  1.29332027E-01 -6.27652847E-01 -2.15799384E+00 -3.60582450E-02  1.29104547E-02
  0.00000000E+00 -6.21333194E-01  5.57508443E-02  0.00000000E+00  6.09338504E-02
 -2.10473798E-01  5.87175151E-02  4.64321568E+00  1.53625565E-01 -9.76983433E-02
  0.00000000E+00 -1.24663038E-01 -2.60231659E-01  0.00000000E+00 -2.26450831E-01
 -6.03994893E-02  0.00000000E+00 -8.84488368E-03  0.00000000E+00  0.00000000E+00
  6.38218907E-03  3.66577957E-03 -6.81701429E-02  0.00000000E+00  0.00000000E+00
 -4.84624627E-02 -7.07801881E-02  6.37262330E-03  5.34464261E-03 -2.22661053E-01
 -1.70676858E+00 -6.40464843E-02  5.21371558E-02  0.00000000E+00 -9.88562296E-02
 -1.08530763E-01  0.00000000E+00  1.13738168E-02 -5.25693596E-01  0.00000000E+00
  2.01366142E-03  0.00000000E+00  0.00000000E+00  5.03746992E-03  3.70367517E-03
  1.90616829E-02  0.00000000E+00  0.00000000E+00  4.66508746E-02 -3.70537903E-04
 -5.51288677E-02 -3.40444257E-01 -1.14218005E+00 -1.88115901E-03  1.72465586E-02
  0.00000000E+00  1.23721720E-01 -5.00568390E-02  0.00000000E+00 -4.69855140E-03
  1.31686466E-02  2.12839659E-01  2.84890752E+00  1.43613639E-02 -6.65787429E-02
  0.00000000E+00  4.47357136E-02 -9.67214064E-02  0.00000000E+00 -1.12685280E+00
  9.00558570E-01  0.00000000E+00 -6.35166143E-03  0.00000000E+00  0.00000000E+00
 -2.67187777E-02  2.27668465E-03 -5.49341644E-04  0.00000000E+00  0.00000000E+00
  4.39287775E-02 -5.42222046E-02  1.00173592E-02 -1.92573667E-02 -6.45306650E-03
 -1.06995820E+00 -5.01257251E-03  1.07899771E-01  0.00000000E+00 -4.97133627E-02
  6.98064610E-02  0.00000000E+00  4.80652137E-01 -1.95696477E+00  0.00000000E+00
 -8.89027217E-03  0.00000000E+00  0.00000000E+00 -1.46624439E-02 -4.64836035E-04
  3.42702613E-02  0.00000000E+00  0.00000000E+00  3.51260119E-02 -8.19793763E-03
  1.16072851E-02  5.13103516E-01  2.28105659E-01  3.23849828E-03  1.96072690E-02
  0.00000000E+00  1.08507276E-01  4.78912166E-04  0.00000000E+00 -3.18645318E-03
  1.37818787E-02  2.98171088E-02 -1.16549712E-01  7.45830493E-02  1.88613001E-02
  0.00000000E+00  9.30046539E-02 -1.49356634E-01  0.00000000E+00 -1.21185195E+00
 -4.92303272E-01  0.00000000E+00  1.53068262E-04  0.00000000E+00  0.00000000E+00
 -2.09273555E-03 -2.00050495E-03 -1.40730260E-02  0.00000000E+00  0.00000000E+00
 -4.64984373E-02  1.02308860E-01 -2.63282515E-03  1.32075569E-02 -6.64672166E-02
 -6.68893061E-01 -2.12582176E-01 -9.55697039E-03  0.00000000E+00 -2.50386230E-01
 -1.16988837E-01  0.00000000E+00  1.92344457E+00  5.93075137E-02  0.00000000E+00
  2.27315538E-04  0.00000000E+00  0.00000000E+00  2.31230834E-03 -1.46542552E-02
  8.72656599E-03  0.00000000E+00  0.00000000E+00  8.71526282E-03  5.00139034E-02
  0.00000000E+00  0.00000000E+00  0.00000000E+00  0.00000000E+00  0.00000000E+00
  1.53987922E-05  0.00000000E+00  0.00000000E+00 -1.31107975E-03  0.00000000E+00
  0.00000000E+00  0.00000000E+00  0.00000000E+00  0.00000000E+00  0.00000000E+00
  9.70179740E-02  0.00000000E+00  0.00000000E+00  4.48543519E-02  0.00000000E+00
  0.00000000E+00 -1.59296353E+00  0.00000000E+00 -2.82264299E-03 -1.37418566E-03
  0.00000000E+00  0.00000000E+00  0.00000000E+00 -1.39097679E-04  6.59719448E-02
  0.00000000E+00  0.00000000E+00  0.00000000E+00  0.00000000E+00  0.00000000E+00
  0.00000000E+00  0.00000000E+00  0.00000000E+00 -2.17923182E-01  0.00000000E+00
  0.00000000E+00 -2.79943159E-01  0.00000000E+00  0.00000000E+00  2.03401092E+00
  0.00000000E+00  8.57140907E-04 -1.38792743E-02  0.00000000E+00  0.00000000E+00
  0.00000000E+00 -4.14764718E-03  4.08066734E-02  0.00000000E+00  0.00000000E+00
 -2.66565567E-01 -2.96147193E+00 -1.19908447E+00 -2.02185868E-02  1.87401398E-02
  0.00000000E+00  1.81787521E-01  1.00448669E-01  0.00000000E+00  8.11934170E-03
 -4.31579895E-02  4.05597962E-02  5.18201048E+00 -2.22457071E-01  4.92511468E-02
  0.00000000E+00 -6.54647009E-01 -1.47124730E-02  0.00000000E+00 -2.19376130E+00
 -5.02722856E-01  0.00000000E+00  1.50472918E-02  0.00000000E+00  0.00000000E+00
 -9.88422504E-03  1.03628433E-02 -4.39027736E-03  0.00000000E+00  0.00000000E+00
  2.58733954E-02 -3.74381457E-04  1.91615629E-03  2.37888316E-03 -6.16122158E-02
 -1.97205030E+00  5.56390672E-02  2.03495654E-02  0.00000000E+00  9.82122380E-02
 -5.66837065E-02  0.00000000E+00  7.07606010E-01  1.16876046E-01  0.00000000E+00
  9.09258195E-03  0.00000000E+00  0.00000000E+00  6.05903666E-03 -9.24990490E-03
  4.23384374E-02  0.00000000E+00  0.00000000E+00 -8.51355935E-03  2.28285414E-02
  0.00000000E+00  0.00000000E+00  0.00000000E+00  0.00000000E+00  0.00000000E+00
  1.55993192E-02  0.00000000E+00  0.00000000E+00  1.52245007E+00  0.00000000E+00
  0.00000000E+00  0.00000000E+00  0.00000000E+00  0.00000000E+00  0.00000000E+00
 -1.21580731E-01  0.00000000E+00  0.00000000E+00 -4.89873476E-01  0.00000000E+00
  0.00000000E+00 -9.65887730E-01  0.00000000E+00 -4.00597730E-02  1.79629815E-02
  0.00000000E+00  0.00000000E+00  0.00000000E+00  6.28437101E-02 -6.72482638E-02
  0.00000000E+00  0.00000000E+00  0.00000000E+00  0.00000000E+00  0.00000000E+00
  0.00000000E+00  0.00000000E+00  0.00000000E+00  1.38382299E-02  0.00000000E+00
  0.00000000E+00  2.41224442E-02  0.00000000E+00  0.00000000E+00  3.33488881E-01
  0.00000000E+00 -4.10396573E-03 -4.54522157E-03  0.00000000E+00  0.00000000E+00
  0.00000000E+00 -7.12512206E-02  1.57900341E-03  0.00000000E+00  0.00000000E+00
 -5.39252548E-02 -1.22534520E+00 -1.43607433E-01 -9.18222712E-03 -4.46096322E-02
  0.00000000E+00 -5.83008505E-01 -6.42084285E-01  0.00000000E+00 -3.44782918E-02
  1.46591991E-01 -6.97789403E-01 -5.09248590E+00 -5.75651602E-03 -1.97622936E-01
  0.00000000E+00 -1.39953076E-01  1.04026018E+00  0.00000000E+00 -7.03552631E-01
  2.87508755E+00  0.00000000E+00  3.43387720E-02  0.00000000E+00  0.00000000E+00
  6.60869500E-02  2.21657981E-02  2.09238203E-01  0.00000000E+00  0.00000000E+00
  3.59590163E-01 -1.29871465E-01  7.18256362E-02 -2.67548834E-01  1.40946406E-01
  7.36388732E+00  1.84734990E-02 -2.31492882E-01  0.00000000E+00 -6.95181636E-02
  6.50679147E-01  0.00000000E+00  5.84021471E-01  1.32415369E+00  0.00000000E+00
 -5.08564904E-03  0.00000000E+00  0.00000000E+00  6.50574061E-04 -1.95629105E-03
 -1.04550657E-01  0.00000000E+00  0.00000000E+00 -1.89912955E-01 -2.92846549E-02
  6.83630227E-02  2.28179576E-01  9.27527170E-01  4.27890548E-03  1.29360863E-02
  0.00000000E+00  2.86658956E-01  1.53434652E+00  0.00000000E+00  4.25734635E-02
 -3.26896021E-02 -1.52672665E+00 -8.16777731E+00  2.97434974E-02  4.51064055E-02