methanol                                                                
FOpt      RMP2-FC                                                     Aug-CC-pVTZ         
Number of atoms                            I                6
Info1-9                                    I   N=           9
          32          28           0           0           0         100
           2           2           1
Charge                                     I                0
Multiplicity                               I                1
Number of electrons                        I               18
Number of alpha electrons                  I                9
Number of beta electrons                   I                9
Number of basis functions                  I              184
Number of independent functions            I              184
Number of point charges in /Mol/           I                0
Number of translation vectors              I                0
Atomic numbers                             I   N=           6
           8           1           6           1           1           1
Nuclear charges                            R   N=           6
  8.00000000E+00  1.00000000E+00  6.00000000E+00  1.00000000E+00  1.00000000E+00
  1.00000000E+00
Current cartesian coordinates              R   N=          18
 -8.83427490E-02 -1.43180722E+00  1.08468374E-30  1.63879765E+00 -1.99402311E+00
  7.88860905E-31 -8.83427490E-02  1.25845031E+00 -7.88860905E-31 -2.05533059E+00
  1.84335376E+00 -7.88860905E-31  8.26665710E-01  2.02721260E+00  1.68057019E+00
  8.26665710E-01  2.02721260E+00 -1.68057019E+00
Force Field                                I                0
Int Atom Types                             I   N=           6
           0           0           0           0           0           0
MM charges                                 R   N=           6
  0.00000000E+00  0.00000000E+00  0.00000000E+00  0.00000000E+00  0.00000000E+00
  0.00000000E+00
Integer atomic weights                     I   N=           6
          16           1          12           1           1           1
Real atomic weights                        R   N=           6
  1.59949146E+01  1.00782504E+00  1.20000000E+01  1.00782504E+00  1.00782504E+00
  1.00782504E+00
Atom fragment info                         I   N=           6
           0           0           0           0           0           0
Atom residue num                           I   N=           6
           0           0           0           0           0           0
Nuclear spins                              I   N=           6
           0           1           0           1           1           1
Nuclear ZEff                               R   N=           6
 -5.60000000E+00 -1.00000000E+00 -3.60000000E+00 -1.00000000E+00 -1.00000000E+00
 -1.00000000E+00
Nuclear ZNuc                               R   N=           6
  8.00000000E+00  1.00000000E+00  6.00000000E+00  1.00000000E+00  1.00000000E+00
  1.00000000E+00
Nuclear QMom                               R   N=           6
  0.00000000E+00  0.00000000E+00  0.00000000E+00  0.00000000E+00  0.00000000E+00
  0.00000000E+00
Nuclear GFac                               R   N=           6
  0.00000000E+00  2.79284600E+00  0.00000000E+00  2.79284600E+00  2.79284600E+00
  2.79284600E+00
MicOpt                                     I   N=           6
          -1          -1          -1          -1          -1          -1
Number of contracted shells                I               64
Number of primitive shells                 I               98
Pure/Cartesian d shells                    I                0
Pure/Cartesian f shells                    I                0
Highest angular momentum                   I                3
Largest degree of contraction              I                7
Shell types                                I   N=          64
           0           0           0           0           0           1
           1           1           1          -2          -2          -2
          -3          -3           0           0           0           0
           1           1           1          -2          -2           0
           0           0           0           0           1           1
           1           1          -2          -2          -2          -3
          -3           0           0           0           0           1
           1           1          -2          -2           0           0
           0           0           1           1           1          -2
          -2           0           0           0           0           1
           1           1          -2          -2
Number of primitives per shell             I   N=          64
           7           6           1           1           1           3
           1           1           1           1           1           1
           1           1           3           1           1           1
           1           1           1           1           1           7
           6           1           1           1           3           1
           1           1           1           1           1           1
           1           3           1           1           1           1
           1           1           1           1           3           1
           1           1           1           1           1           1
           1           3           1           1           1           1
           1           1           1           1
Shell to atom map                          I   N=          64
           1           1           1           1           1           1
           1           1           1           1           1           1
           1           1           2           2           2           2
           2           2           2           2           2           3
           3           3           3           3           3           3
           3           3           3           3           3           3
           3           4           4           4           4           4
           4           4           4           4           5           5
           5           5           5           5           5           5
           5           6           6           6           6           6
           6           6           6           6
Primitive exponents                        R   N=          98
  1.53300000E+04  2.29900000E+03  5.22400000E+02  1.47300000E+02  4.75500000E+01
  1.67600000E+01  6.20700000E+00  5.22400000E+02  1.47300000E+02  4.75500000E+01
  1.67600000E+01  6.20700000E+00  6.88200000E-01  1.75200000E+00  2.38400000E-01
  7.37600000E-02  3.44600000E+01  7.74900000E+00  2.28000000E+00  7.15600000E-01
  2.14000000E-01  5.97400000E-02  2.31400000E+00  6.45000000E-01  2.14000000E-01
  1.42800000E+00  5.00000000E-01  3.38700000E+01  5.09500000E+00  1.15900000E+00
  3.25800000E-01  1.02700000E-01  2.52600000E-02  1.40700000E+00  3.88000000E-01
  1.02000000E-01  1.05700000E+00  2.47000000E-01  8.23600000E+03  1.23500000E+03
  2.80800000E+02  7.92700000E+01  2.55900000E+01  8.99700000E+00  3.31900000E+00
  2.80800000E+02  7.92700000E+01  2.55900000E+01  8.99700000E+00  3.31900000E+00
  3.64300000E-01  9.05900000E-01  1.28500000E-01  4.40200000E-02  1.87100000E+01
  4.13300000E+00  1.20000000E+00  3.82700000E-01  1.20900000E-01  3.56900000E-02
  1.09700000E+00  3.18000000E-01  1.00000000E-01  7.61000000E-01  2.68000000E-01
  3.38700000E+01  5.09500000E+00  1.15900000E+00  3.25800000E-01  1.02700000E-01
  2.52600000E-02  1.40700000E+00  3.88000000E-01  1.02000000E-01  1.05700000E+00
  2.47000000E-01  3.38700000E+01  5.09500000E+00  1.15900000E+00  3.25800000E-01
  1.02700000E-01  2.52600000E-02  1.40700000E+00  3.88000000E-01  1.02000000E-01
  1.05700000E+00  2.47000000E-01  3.38700000E+01  5.09500000E+00  1.15900000E+00
  3.25800000E-01  1.02700000E-01  2.52600000E-02  1.40700000E+00  3.88000000E-01
  1.02000000E-01  1.05700000E+00  2.47000000E-01
Contraction coefficients                   R   N=          98
  5.19808943E-04  4.02025621E-03  2.07128267E-02  8.10105536E-02  2.35962985E-01
  4.42653446E-01  3.57064423E-01 -4.42115008E-05 -1.22591041E-03 -1.05517725E-02
 -6.74452633E-02 -1.71198607E-01  1.07329856E+00  1.00000000E+00  1.00000000E+00
  1.00000000E+00  4.11634896E-02  2.57762836E-01  8.02419274E-01  1.00000000E+00
  1.00000000E+00  1.00000000E+00  1.00000000E+00  1.00000000E+00  1.00000000E+00
  1.00000000E+00  1.00000000E+00  2.54948632E-02  1.90362766E-01  8.52162022E-01
  1.00000000E+00  1.00000000E+00  1.00000000E+00  1.00000000E+00  1.00000000E+00
  1.00000000E+00  1.00000000E+00  1.00000000E+00  5.41978320E-04  4.19287382E-03
  2.15221621E-02  8.35343220E-02  2.39582846E-01  4.42852842E-01  3.51799562E-01
 -5.94922494E-05 -1.14815831E-03 -1.00191374E-02 -6.12194923E-02 -1.73269854E-01
  1.07291519E+00  1.00000000E+00  1.00000000E+00  1.00000000E+00  3.94263872E-02
  2.44088985E-01  8.15492009E-01  1.00000000E+00  1.00000000E+00  1.00000000E+00
  1.00000000E+00  1.00000000E+00  1.00000000E+00  1.00000000E+00  1.00000000E+00
  2.54948632E-02  1.90362766E-01  8.52162022E-01  1.00000000E+00  1.00000000E+00
  1.00000000E+00  1.00000000E+00  1.00000000E+00  1.00000000E+00  1.00000000E+00
  1.00000000E+00  2.54948632E-02  1.90362766E-01  8.52162022E-01  1.00000000E+00
  1.00000000E+00  1.00000000E+00  1.00000000E+00  1.00000000E+00  1.00000000E+00
  1.00000000E+00  1.00000000E+00  2.54948632E-02  1.90362766E-01  8.52162022E-01
  1.00000000E+00  1.00000000E+00  1.00000000E+00  1.00000000E+00  1.00000000E+00
  1.00000000E+00  1.00000000E+00  1.00000000E+00
Coordinates of each shell                  R   N=         192
 -8.83427490E-02 -1.43180722E+00 -5.91645679E-31 -8.83427490E-02 -1.43180722E+00
 -5.91645679E-31 -8.83427490E-02 -1.43180722E+00 -5.91645679E-31 -8.83427490E-02
 -1.43180722E+00 -5.91645679E-31 -8.83427490E-02 -1.43180722E+00 -5.91645679E-31
 -8.83427490E-02 -1.43180722E+00 -5.91645679E-31 -8.83427490E-02 -1.43180722E+00
 -5.91645679E-31 -8.83427490E-02 -1.43180722E+00 -5.91645679E-31 -8.83427490E-02
 -1.43180722E+00 -5.91645679E-31 -8.83427490E-02 -1.43180722E+00 -5.91645679E-31
 -8.83427490E-02 -1.43180722E+00 -5.91645679E-31 -8.83427490E-02 -1.43180722E+00
 -5.91645679E-31 -8.83427490E-02 -1.43180722E+00 -5.91645679E-31 -8.83427490E-02
 -1.43180722E+00 -5.91645679E-31  1.63879765E+00 -1.99402311E+00  0.00000000E+00
  1.63879765E+00 -1.99402311E+00  0.00000000E+00  1.63879765E+00 -1.99402311E+00
  0.00000000E+00  1.63879765E+00 -1.99402311E+00  0.00000000E+00  1.63879765E+00
 -1.99402311E+00  0.00000000E+00  1.63879765E+00 -1.99402311E+00  0.00000000E+00
  1.63879765E+00 -1.99402311E+00  0.00000000E+00  1.63879765E+00 -1.99402311E+00
  0.00000000E+00  1.63879765E+00 -1.99402311E+00  0.00000000E+00 -8.83427490E-02
  1.25845031E+00  1.97215226E-31 -8.83427490E-02  1.25845031E+00  1.97215226E-31
 -8.83427490E-02  1.25845031E+00  1.97215226E-31 -8.83427490E-02  1.25845031E+00
  1.97215226E-31 -8.83427490E-02  1.25845031E+00  1.97215226E-31 -8.83427490E-02
  1.25845031E+00  1.97215226E-31 -8.83427490E-02  1.25845031E+00  1.97215226E-31
 -8.83427490E-02  1.25845031E+00  1.97215226E-31 -8.83427490E-02  1.25845031E+00
  1.97215226E-31 -8.83427490E-02  1.25845031E+00  1.97215226E-31 -8.83427490E-02
  1.25845031E+00  1.97215226E-31 -8.83427490E-02  1.25845031E+00  1.97215226E-31
 -8.83427490E-02  1.25845031E+00  1.97215226E-31 -8.83427490E-02  1.25845031E+00
  1.97215226E-31 -2.05533059E+00  1.84335376E+00  0.00000000E+00 -2.05533059E+00
  1.84335376E+00  0.00000000E+00 -2.05533059E+00  1.84335376E+00  0.00000000E+00
 -2.05533059E+00  1.84335376E+00  0.00000000E+00 -2.05533059E+00  1.84335376E+00
  0.00000000E+00 -2.05533059E+00  1.84335376E+00  0.00000000E+00 -2.05533059E+00
  1.84335376E+00  0.00000000E+00 -2.05533059E+00  1.84335376E+00  0.00000000E+00
 -2.05533059E+00  1.84335376E+00  0.00000000E+00  8.26665710E-01  2.02721260E+00
  1.68057019E+00  8.26665710E-01  2.02721260E+00  1.68057019E+00  8.26665710E-01
  2.02721260E+00  1.68057019E+00  8.26665710E-01  2.02721260E+00  1.68057019E+00
  8.26665710E-01  2.02721260E+00  1.68057019E+00  8.26665710E-01  2.02721260E+00
  1.68057019E+00  8.26665710E-01  2.02721260E+00  1.68057019E+00  8.26665710E-01
  2.02721260E+00  1.68057019E+00  8.26665710E-01  2.02721260E+00  1.68057019E+00
  8.26665710E-01  2.02721260E+00 -1.68057019E+00  8.26665710E-01  2.02721260E+00
 -1.68057019E+00  8.26665710E-01  2.02721260E+00 -1.68057019E+00  8.26665710E-01
  2.02721260E+00 -1.68057019E+00  8.26665710E-01  2.02721260E+00 -1.68057019E+00
  8.26665710E-01  2.02721260E+00 -1.68057019E+00  8.26665710E-01  2.02721260E+00
 -1.68057019E+00  8.26665710E-01  2.02721260E+00 -1.68057019E+00  8.26665710E-01
  2.02721260E+00 -1.68057019E+00
Constraint Structure                       R   N=          18
 -9.40315744E-02 -1.40389154E+00  9.86076132E-31  1.59853677E+00 -2.00230482E+00
  7.88860905E-31 -9.40315744E-02  1.24172504E+00 -9.86076132E-32 -2.03424939E+00
  1.92769563E+00 -7.88860905E-31  8.76077332E-01  1.92769563E+00  1.68027791E+00
  8.76077332E-01  1.92769563E+00 -1.68027791E+00
Num ILSW                                   I              100
ILSW                                       I   N=         100
           0           0           0           0           2           0
           0           0           0           0           0          -1
           0           0           0           0           2           0
           0           0           0           0           1           0
           1           0           0           0           0           0
           0           0      100000           0          -1           0
           0           0           0           0           0           0
           0           0           0           1           0           0
           0           0           1           0           0           0
           0           0           4          41           0           0
           0           0           0           0           0           0
           0           0           0           6           0           0
           0           0           0           0           0           0
           0           0           0           0           0           0
           0           0           0           0           0           0
           0           0           0           0           0           0
           0           0           0           0
Num RLSW                                   I               41
RLSW                                       R   N=          41
  1.00000000E+00  1.00000000E+00  1.00000000E+00  1.00000000E+00  1.00000000E+00
  0.00000000E+00  0.00000000E+00  1.00000000E+00  0.00000000E+00  0.00000000E+00
  0.00000000E+00  0.00000000E+00  1.00000000E+00  0.00000000E+00  0.00000000E+00
  0.00000000E+00  0.00000000E+00  1.00000000E+00  0.00000000E+00  0.00000000E+00
  0.00000000E+00  0.00000000E+00  1.00000000E+00  0.00000000E+00  0.00000000E+00
  0.00000000E+00  0.00000000E+00  1.00000000E+00  0.00000000E+00  0.00000000E+00
  0.00000000E+00  0.00000000E+00  1.00000000E+00  0.00000000E+00  0.00000000E+00
  0.00000000E+00  0.00000000E+00  0.00000000E+00  1.00000000E+00  1.00000000E+00
  0.00000000E+00
MxBond                                     I                4
NBond                                      I   N=           6
           2           1           4           1           1           1
IBond                                      I   N=          24
           2           3           0           0           1           0
           0           0           1           4           5           6
           3           0           0           0           3           0
           0           0           3           0           0           0
RBond                                      R   N=          24
  1.00000000E+00  1.00000000E+00  0.00000000E+00  0.00000000E+00  1.00000000E+00
  0.00000000E+00  0.00000000E+00  0.00000000E+00  1.00000000E+00  1.00000000E+00
  1.00000000E+00  1.00000000E+00  1.00000000E+00  0.00000000E+00  0.00000000E+00
  0.00000000E+00  1.00000000E+00  0.00000000E+00  0.00000000E+00  0.00000000E+00
  1.00000000E+00  0.00000000E+00  0.00000000E+00  0.00000000E+00
Virial Ratio                               R      2.001509429198332E+00
SCF Energy                                 R     -1.150920357489294E+02
MP2 Energy                                 R     -1.155290077408149E+02
Total Energy                               R     -1.155290077408149E+02
Post-SCF wavefunction norm                 R      1.055698289589969E+00
RMS Force                                  R      1.906902675591165E-05
RMS Density                                R      6.482618865212121E-09
External E-field                           R   N=          35
  0.00000000E+00  0.00000000E+00  0.00000000E+00  0.00000000E+00  0.00000000E+00
  0.00000000E+00  0.00000000E+00  0.00000000E+00  0.00000000E+00  0.00000000E+00
  0.00000000E+00  0.00000000E+00  0.00000000E+00  0.00000000E+00  0.00000000E+00
  0.00000000E+00  0.00000000E+00  0.00000000E+00  0.00000000E+00  0.00000000E+00
  0.00000000E+00  0.00000000E+00  0.00000000E+00  0.00000000E+00  0.00000000E+00
  0.00000000E+00  0.00000000E+00  0.00000000E+00  0.00000000E+00  0.00000000E+00
  0.00000000E+00  0.00000000E+00  0.00000000E+00  0.00000000E+00  0.00000000E+00
IOpCl                                      I                0
IROHF                                      I                0
Alpha Orbital Energies                     R   N=         184
 -2.05590969E+01 -1.12709992E+01 -1.35636210E+00 -9.26299037E-01 -6.90438019E-01
 -6.20619134E-01 -5.92538538E-01 -5.04855995E-01 -4.52177790E-01  2.84957714E-02
  4.29860780E-02  4.65632684E-02  5.29879893E-02  9.89536370E-02  1.16659709E-01
  1.29251190E-01  1.40019164E-01  1.65365245E-01  1.73206374E-01  1.82656284E-01
  2.11252232E-01  2.15292417E-01  2.67798670E-01  2.69998198E-01  2.94144192E-01
  3.00616241E-01  3.21099850E-01  3.21734145E-01  3.33590033E-01  3.43058011E-01
  3.51377836E-01  3.69451409E-01  3.91199996E-01  4.08764231E-01  4.33590131E-01
  4.36816105E-01  4.46519637E-01  4.54980098E-01  4.60137817E-01  4.80262782E-01
  5.05543480E-01  5.13360120E-01  5.23602274E-01  6.63147870E-01  6.70062429E-01
  6.81034371E-01  7.54030611E-01  7.70727553E-01  7.80964537E-01  7.91739069E-01
  8.04459791E-01  8.50678431E-01  8.57546965E-01  8.86468478E-01  9.00861065E-01
  9.32631026E-01  9.35436100E-01  9.37553979E-01  9.49524278E-01  9.73481331E-01
  9.78708068E-01  9.84742324E-01  1.01742219E+00  1.04360129E+00  1.07027083E+00
  1.07333072E+00  1.09343934E+00  1.11015016E+00  1.12407077E+00  1.13946789E+00
  1.14540017E+00  1.17838011E+00  1.20107988E+00  1.20250011E+00  1.24873038E+00
  1.29749044E+00  1.31637289E+00  1.37089622E+00  1.40815818E+00  1.43718958E+00
  1.53386114E+00  1.55651210E+00  1.56118762E+00  1.59186977E+00  1.60094091E+00
  1.61453973E+00  1.64798180E+00  1.65862491E+00  1.66966348E+00  1.70011683E+00
  1.73388489E+00  1.75538060E+00  1.89007909E+00  1.93615518E+00  1.95368403E+00
  1.97741023E+00  2.03216069E+00  2.03904668E+00  2.07331741E+00  2.08176077E+00
  2.16452310E+00  2.17912561E+00  2.37618815E+00  2.47621180E+00  2.48366977E+00
  2.51516625E+00  2.54420451E+00  2.57361405E+00  2.73534048E+00  2.75651950E+00
  2.78261487E+00  2.84242950E+00  2.88763451E+00  2.94784513E+00  2.98590552E+00
  3.04322412E+00  3.19074271E+00  3.31580923E+00  3.37604783E+00  3.52611176E+00
  3.54918612E+00  3.58077722E+00  3.62336501E+00  3.63700110E+00  3.70260557E+00
  3.77893034E+00  3.85773138E+00  3.88950772E+00  3.93551685E+00  3.93979417E+00
  3.98909412E+00  4.05977500E+00  4.08074943E+00  4.09972542E+00  4.16903033E+00
  4.20308203E+00  4.22571933E+00  4.23472594E+00  4.27771216E+00  4.47093563E+00
  4.50292525E+00  4.51789087E+00  4.54579967E+00  4.60642705E+00  4.64719863E+00
  4.75795603E+00  4.76131957E+00  4.76441290E+00  4.90728603E+00  4.97175907E+00
  5.01953933E+00  5.03533586E+00  5.06107706E+00  5.13601069E+00  5.24584219E+00
  5.25317322E+00  5.38256453E+00  5.47525799E+00  5.52817309E+00  5.58978215E+00
  5.59389977E+00  5.65220084E+00  5.71576360E+00  6.10395266E+00  6.10844479E+00
  6.13271404E+00  6.15748240E+00  6.55666436E+00  6.61130021E+00  6.62363548E+00
  6.87649786E+00  6.88956998E+00  7.05730901E+00  7.25797818E+00  7.30898600E+00
  7.36657294E+00  7.47148713E+00  7.52006345E+00  7.73103680E+00  7.83843705E+00
  8.13257141E+00  8.50382902E+00  1.55345196E+01  1.76892184E+01
Alpha MO coefficients                      R   N=       33856
  9.76655888E-01 -9.25456242E-03  4.37332035E-02 -6.52622742E-05 -1.50740082E-03
  1.50296214E-03  1.16553002E-03  0.00000000E+00 -1.14269649E-03 -1.58435610E-03
  0.00000000E+00 -8.18544526E-04  1.84902475E-04  0.00000000E+00  4.36715420E-05
 -2.89861721E-04  0.00000000E+00 -5.06164821E-05  0.00000000E+00  0.00000000E+00
  3.07309251E-05 -5.11501260E-05  6.88094930E-04  0.00000000E+00  0.00000000E+00
  3.73277362E-04  3.12561420E-04  6.55918432E-05  0.00000000E+00  0.00000000E+00
 -3.98461260E-05  1.70265286E-04  0.00000000E+00 -3.10997983E-05  3.63839768E-05
  0.00000000E+00  0.00000000E+00  1.91129242E-05 -1.16769129E-05  0.00000000E+00
  1.95712440E-04  3.10211307E-05  0.00000000E+00  0.00000000E+00 -7.11105543E-05
  3.87388886E-04  5.65382479E-04  1.83619691E-03 -3.50697594E-04 -1.20245553E-04
 -1.70106212E-04  6.34533121E-05  0.00000000E+00 -8.95745165E-04 -5.17021889E-05
  0.00000000E+00 -1.60677717E-04 -3.63083585E-04  0.00000000E+00  8.77086264E-05
  0.00000000E+00  0.00000000E+00 -1.17251376E-04  1.06021056E-04 -1.13076715E-04
  0.00000000E+00  0.00000000E+00  3.65455942E-04 -9.12620811E-05  8.81421575E-05
  7.29698372E-04 -1.46121666E-04 -9.03947241E-03  1.18755885E-04  2.52308703E-06
  1.34049566E-04  0.00000000E+00 -1.37095299E-04 -1.96598370E-03  0.00000000E+00
  9.29520975E-04 -1.31417278E-03  0.00000000E+00  2.07227747E-05 -1.26582625E-04
  0.00000000E+00 -1.24633847E-04  0.00000000E+00  0.00000000E+00 -1.96199378E-04
  2.32547828E-05 -1.25952621E-03  0.00000000E+00  0.00000000E+00 -2.39788597E-03
 -1.77198277E-04  1.21728982E-05  0.00000000E+00  0.00000000E+00 -5.11620338E-04
 -5.33278796E-04  0.00000000E+00 -6.18512853E-05  2.08047406E-04  0.00000000E+00
  0.00000000E+00  1.62023342E-05  2.91336146E-04  0.00000000E+00 -1.09744776E-03
  2.11036718E-04  0.00000000E+00  0.00000000E+00  1.69444634E-04  3.51082945E-04
  1.90259662E-05  2.44644439E-03  3.18214890E-03  2.87609562E-05  2.46334574E-05
 -9.92433853E-06  0.00000000E+00  2.35441524E-04 -6.80028204E-04  0.00000000E+00
  6.51219449E-04 -8.58869378E-04  0.00000000E+00  1.24078466E-06  0.00000000E+00
  0.00000000E+00 -1.92166417E-05 -3.76725983E-05 -8.10513452E-05  0.00000000E+00
  0.00000000E+00 -1.97504002E-04 -4.64173624E-05  1.22934058E-05  2.24322930E-03
  1.93025821E-03  6.32563520E-05 -1.31642008E-05 -1.84330173E-06 -2.02779719E-05
 -2.77227667E-05 -8.00069788E-04 -2.31971150E-04 -1.48876960E-05 -4.16730113E-04
 -5.31487508E-04 -1.21185392E-05 -1.17768163E-05  4.03820616E-05 -2.40255810E-05
  1.03161742E-05 -9.02468746E-05 -2.02013441E-05  9.96204249E-05 -2.24322502E-04
 -3.50314548E-06  1.22934058E-05  2.24322930E-03  1.93025821E-03  6.32563520E-05
 -1.31642008E-05 -1.84330173E-06  2.02779719E-05 -2.77227667E-05 -8.00069788E-04
  2.31971150E-04 -1.48876960E-05 -4.16730113E-04  5.31487508E-04 -1.21185392E-05
  1.17768163E-05 -4.03820616E-05 -2.40255810E-05  1.03161742E-05 -9.02468746E-05
  2.02013441E-05 -9.96204249E-05 -2.24322502E-04 -3.50314548E-06 -1.28435463E-04
  2.03892218E-04  1.04945821E-04  6.13039590E-03  3.27163803E-03 -3.32269880E-05
  2.30270642E-04  0.00000000E+00  3.16563478E-04  5.19351504E-04  0.00000000E+00
  1.00482761E-03  3.32682382E-03  0.00000000E+00  1.74028873E-05  8.76514948E-04
  0.00000000E+00 -3.79169468E-05  0.00000000E+00  0.00000000E+00 -1.09322482E-04
 -6.41098406E-06 -5.73575022E-05  0.00000000E+00  0.00000000E+00  4.33192482E-04
  4.17942245E-05 -3.55856266E-04  0.00000000E+00  0.00000000E+00  1.01566226E-04
  6.34049657E-04  0.00000000E+00 -4.22579878E-05  6.49425148E-05  0.00000000E+00
  0.00000000E+00  3.52066018E-05  4.88466732E-06  0.00000000E+00  5.89217743E-05
  8.29956278E-05  0.00000000E+00  0.00000000E+00  2.05483052E-04  5.84016030E-04
  4.87699751E-05 -1.44897325E-03  8.69075369E-04  3.48362817E-04  7.57578289E-05
 -1.18211194E-04  0.00000000E+00  2.79788933E-04 -1.13685616E-03  0.00000000E+00
 -3.98887897E-04  3.59213567E-05  0.00000000E+00  3.80330949E-05  0.00000000E+00
  0.00000000E+00  5.41433661E-05  1.72939555E-04  8.13155944E-05  0.00000000E+00
  0.00000000E+00  9.91586238E-05  1.78310786E-04  9.79161804E-01 -4.75767246E-03
  4.18052339E-02 -4.60663182E-03 -1.31556968E-03  1.11815909E-04 -1.09401217E-03
  0.00000000E+00 -4.60182564E-04  1.94917749E-03  0.00000000E+00 -4.70222588E-04
  2.49531651E-03  0.00000000E+00 -9.61778030E-06  3.17357134E-04  0.00000000E+00
  1.70816191E-05  0.00000000E+00  0.00000000E+00  8.51197779E-05  2.81849417E-05
  6.01554268E-04  0.00000000E+00  0.00000000E+00  8.16356128E-04 -2.88708646E-04
  3.68399664E-04  0.00000000E+00  0.00000000E+00  6.65265288E-04  2.21281343E-04
  0.00000000E+00  7.12276615E-04  3.97405507E-04  0.00000000E+00  0.00000000E+00
 -2.38531288E-04  5.57716081E-04  0.00000000E+00 -1.30030818E-03 -9.72125910E-04
  0.00000000E+00  0.00000000E+00  3.43145179E-04 -8.74429457E-04  8.62456494E-05
  1.38006910E-03 -1.25514466E-03  4.72122558E-05 -2.75405920E-04  6.86595090E-05
  0.00000000E+00 -7.77860049E-04 -1.75316147E-05  0.00000000E+00 -6.88443302E-04
  5.50163541E-04  0.00000000E+00  1.09269310E-04  0.00000000E+00  0.00000000E+00
 -2.36233542E-04  8.27007760E-05  1.48501632E-04  0.00000000E+00  0.00000000E+00
 -4.47040194E-04  3.00042560E-04  1.25460525E-04  1.92011029E-03 -1.18196382E-03
 -1.37862835E-04  1.12042152E-04  1.04604469E-04  2.20200596E-04  3.08692514E-04
  2.09570239E-04  4.03570261E-04  3.24731978E-04  5.33076640E-04  5.69656415E-04
 -1.21251078E-04 -1.48408834E-04 -1.44420893E-04 -1.66137530E-05 -8.28101741E-05
 -1.68596076E-04 -2.64811451E-04 -2.89532740E-04 -6.52411591E-06 -2.13430033E-04
  1.25460525E-04  1.92011029E-03 -1.18196382E-03 -1.37862835E-04  1.12042152E-04
  1.04604469E-04 -2.20200596E-04  3.08692514E-04  2.09570239E-04 -4.03570261E-04
  3.24731978E-04  5.33076640E-04 -5.69656415E-04 -1.21251078E-04  1.48408834E-04
  1.44420893E-04 -1.66137530E-05 -8.28101741E-05 -1.68596076E-04  2.64811451E-04
  2.89532740E-04 -6.52411591E-06 -2.13430033E-04 -1.94610054E-01  4.70534147E-01
  1.26417761E-01  2.88409218E-01  2.43574164E-02  3.26410417E-02  2.49616848E-02
  0.00000000E+00  4.62378713E-02  3.87842684E-02  0.00000000E+00  9.33227443E-03
  1.22215399E-02  0.00000000E+00  2.84970050E-03 -3.20062762E-03  0.00000000E+00
 -3.17556555E-03  0.00000000E+00  0.00000000E+00  8.74959687E-05 -1.13562972E-03
 -9.78698997E-03  0.00000000E+00  0.00000000E+00 -4.41203208E-03 -2.44102205E-03
  2.21500398E-03  0.00000000E+00  0.00000000E+00 -1.18154501E-03 -5.64525822E-05
  0.00000000E+00 -1.17674134E-03 -1.32449847E-03  0.00000000E+00  0.00000000E+00
  7.28299018E-04 -2.87685083E-03  0.00000000E+00  1.68333602E-05 -1.43867784E-03
  0.00000000E+00  0.00000000E+00 -1.38322167E-03 -2.37036314E-03  8.43337312E-02
  7.28330726E-02 -1.71498382E-02 -2.85480783E-03 -1.16679570E-02  5.13268566E-03
  0.00000000E+00 -7.50009174E-03  8.18103835E-03  0.00000000E+00  7.38060217E-03
 -7.32914073E-04  0.00000000E+00 -1.06505897E-03  0.00000000E+00  0.00000000E+00
  1.09796540E-03 -1.95148534E-03  5.21227575E-05  0.00000000E+00  0.00000000E+00
 -2.22534428E-03 -7.01658955E-04 -6.25654522E-02  1.50700389E-01  3.23825141E-02
 -2.39267671E-02 -7.78043244E-03  2.30680800E-03 -5.04482789E-02  0.00000000E+00
  2.85802236E-03 -5.89552980E-02  0.00000000E+00  5.69398200E-04 -9.76610847E-03
  0.00000000E+00 -1.67866384E-03 -5.07785378E-04  0.00000000E+00 -5.16519444E-03
  0.00000000E+00  0.00000000E+00 -8.85231843E-03 -6.46126492E-04 -9.36019838E-03
  0.00000000E+00  0.00000000E+00 -1.49090226E-02 -1.64030336E-03  4.87945586E-04
  0.00000000E+00  0.00000000E+00 -3.19008185E-04 -3.04496157E-03  0.00000000E+00
  1.37082381E-03  3.49464570E-03  0.00000000E+00  0.00000000E+00 -7.55299698E-04
  3.97422410E-03  0.00000000E+00 -3.98967496E-03 -6.67642521E-04  0.00000000E+00
  0.00000000E+00  1.22151716E-03  9.54323483E-04  1.34718386E-02  2.23705994E-02
  7.49002118E-03 -1.53266687E-03  1.40016530E-03 -1.14496116E-03  0.00000000E+00
 -6.74812221E-04 -2.47976061E-03  0.00000000E+00 -9.06071840E-04 -1.32277609E-03
  0.00000000E+00 -2.19250091E-04  0.00000000E+00  0.00000000E+00 -1.72393396E-04
 -6.65724846E-04  1.51866271E-03  0.00000000E+00  0.00000000E+00 -1.64496173E-03
  1.51572588E-03  1.31426082E-02  2.31884942E-02  1.06608629E-02  2.07029935E-03
 -4.85108212E-04 -1.20571356E-03 -1.00793144E-03  2.26173191E-04 -1.93826702E-03
  3.54547461E-04  5.24112815E-04  1.43422848E-03 -9.98688102E-04 -1.66061681E-04
 -1.36511043E-05  4.57248206E-04 -3.25969591E-04  1.84184587E-04 -1.06443087E-03
 -1.50804624E-03 -1.57075357E-03  2.05135762E-04 -1.00260295E-03  1.31426082E-02
  2.31884942E-02  1.06608629E-02  2.07029935E-03 -4.85108212E-04 -1.20571356E-03
  1.00793144E-03  2.26173191E-04 -1.93826702E-03 -3.54547461E-04  5.24112815E-04
  1.43422848E-03  9.98688102E-04 -1.66061681E-04  1.36511043E-05 -4.57248206E-04
 -3.25969591E-04  1.84184587E-04 -1.06443087E-03  1.50804624E-03  1.57075357E-03
  2.05135762E-04 -1.00260295E-03  5.53302853E-02 -1.37642289E-01 -3.97109716E-02
 -9.57910741E-02  2.53725492E-03 -4.45799724E-02  9.81821846E-02  0.00000000E+00
 -5.55100703E-02  1.22378560E-01  0.00000000E+00 -1.90765439E-02  6.12645124E-02
  0.00000000E+00 -3.03040229E-03  4.20421163E-03  0.00000000E+00 -3.42904415E-04
  0.00000000E+00  0.00000000E+00 -5.25352388E-03  2.05711459E-03 -1.38974889E-03