trans-mesno                                                             
FOpt      RPBE1PBE                                                    Gen                 
Number of atoms                            I                7
Info1-9                                    I   N=           9
         302         301           0           0           0         110
           2          18        -302
Charge                                     I                0
Multiplicity                               I                1
Number of electrons                        I               40
Number of alpha electrons                  I               20
Number of beta electrons                   I               20
Number of basis functions                  I               71
Number of independent functions            I               71
Number of point charges in /Mol/           I                0
Number of translation vectors              I                0
Atomic numbers                             I   N=           7
           8           7          16           6           1           1
           1
Nuclear charges                            R   N=           7
  8.00000000E+00  7.00000000E+00  1.60000000E+01  6.00000000E+00  1.00000000E+00
  1.00000000E+00  1.00000000E+00
Current cartesian coordinates              R   N=          21
 -3.14928453E+00 -2.18996733E+00 -7.88860905E-31 -9.63196863E-01 -1.80617569E+00
  0.00000000E+00  5.55111512E-17  1.46059067E+00  1.28189897E-30  3.31755804E+00
  7.87201931E-01 -4.73316543E-30  4.30786008E+00  2.61933067E+00 -3.15544362E-30
  3.86172299E+00 -2.74512273E-01  1.70558607E+00  3.86172299E+00 -2.74512273E-01
 -1.70558607E+00
Force Field                                I                0
Int Atom Types                             I   N=           7
           0           0           0           0           0           0
           0
MM charges                                 R   N=           7
  0.00000000E+00  0.00000000E+00  0.00000000E+00  0.00000000E+00  0.00000000E+00
  0.00000000E+00  0.00000000E+00
Integer atomic weights                     I   N=           7
          16          14          32          12           1           1
           1
Real atomic weights                        R   N=           7
  1.59949146E+01  1.40030740E+01  3.19720718E+01  1.20000000E+01  1.00782504E+00
  1.00782504E+00  1.00782504E+00
Atom fragment info                         I   N=           7
           0           0           0           0           0           0
           0
Atom residue num                           I   N=           7
           0           0           0           0           0           0
           0
Nuclear spins                              I   N=           7
           0           2           0           0           1           1
           1
Nuclear ZEff                               R   N=           7
 -5.60000000E+00 -4.55000000E+00 -1.36000000E+01 -3.60000000E+00 -1.00000000E+00
 -1.00000000E+00 -1.00000000E+00
Nuclear ZNuc                               R   N=           7
  8.00000000E+00  7.00000000E+00  1.60000000E+01  6.00000000E+00  1.00000000E+00
  1.00000000E+00  1.00000000E+00
Nuclear QMom                               R   N=           7
  0.00000000E+00  2.04400000E+00  0.00000000E+00  0.00000000E+00  0.00000000E+00
  0.00000000E+00  0.00000000E+00
Nuclear GFac                               R   N=           7
  0.00000000E+00  4.03761000E-01  0.00000000E+00  0.00000000E+00  2.79284600E+00
  2.79284600E+00  2.79284600E+00
MicOpt                                     I   N=           7
          -1          -1          -1          -1          -1          -1
          -1
Number of contracted shells                I               33
Number of primitive shells                 I               67
Pure/Cartesian d shells                    I                0
Pure/Cartesian f shells                    I                0
Highest angular momentum                   I                2
Largest degree of contraction              I                5
Shell types                                I   N=          33
           0           0           0           1           1          -2
           0           0           0           1           1          -2
           0           0           0           0           1           1
           1          -2          -2           0           0           0
           1           1          -2           0           0           0
           0           0           0
Number of primitives per shell             I   N=          33
           5           1           1           3           1           1
           5           1           1           3           1           1
           5           3           1           1           5           1
           1           1           1           5           1           1
           3           1           1           3           1           3
           1           3           1
Shell to atom map                          I   N=          33
           1           1           1           1           1           1
           2           2           2           2           2           2
           3           3           3           3           3           3
           3           3           3           4           4           4
           4           4           4           5           5           6
           6           7           7
Primitive exponents                        R   N=          67
  2.26617678E+03  3.40870102E+02  7.73631352E+01  2.14796449E+01  6.65894331E+00
  8.09759757E-01  2.55307722E-01  1.77215043E+01  3.86355054E+00  1.04809209E+00
  2.76415444E-01  1.20000000E+00  1.71284159E+03  2.57648127E+02  5.84582459E+01
  1.61983679E+01  5.00526008E+00  5.87318566E-01  1.87645923E-01  1.35714702E+01
  2.92573729E+00  7.99277508E-01  2.19543480E-01  1.00000000E+00  9.18493030E+03
  1.38151055E+03  3.13871476E+02  8.80538706E+01  2.70399149E+01  4.56487313E+01
  4.96645223E+00  2.01162420E+00  3.56610770E-01  1.35072215E-01  2.61982334E+02
  6.13068947E+01  1.91037299E+01  6.65677204E+00  2.39596352E+00  6.17761617E-01
  1.69933769E-01  5.50000000E-01  2.99400000E+00  1.23840169E+03  1.86290050E+02
  4.22511763E+01  1.16765579E+01  3.59305065E+00  4.02451474E-01  1.30901827E-01
  9.46809706E+00  2.01035451E+00  5.47710047E-01  1.52686138E-01  8.00000000E-01
  1.30107010E+01  1.96225720E+00  4.44537960E-01  1.21949620E-01  1.30107010E+01
  1.96225720E+00  4.44537960E-01  1.21949620E-01  1.30107010E+01  1.96225720E+00
  4.44537960E-01  1.21949620E-01
Contraction coefficients                   R   N=          67
 -5.38935039E-03 -4.02347214E-02 -1.80081842E-01 -4.68288577E-01 -4.46926172E-01
  1.00000000E+00  1.00000000E+00  6.26302488E-02  3.33311385E-01  7.41486383E-01
  1.00000000E+00  1.00000000E+00 -5.44779958E-03 -4.06271746E-02 -1.81119623E-01
 -4.68439756E-01 -4.46168463E-01  1.00000000E+00  1.00000000E+00 -5.88481170E-02
 -3.20246248E-01 -7.53282265E-01  1.00000000E+00  1.00000000E+00 -5.47294661E-03
 -4.09544022E-02 -1.84758290E-01 -4.75672806E-01 -4.34951536E-01 -9.19040458E-02
  5.56987772E-01  5.11154683E-01  1.00000000E+00  1.00000000E+00 -9.18305466E-03
 -6.59022265E-02 -2.45877845E-01 -4.82314711E-01 -3.89563144E-01  1.00000000E+00
  1.00000000E+00  1.00000000E+00  1.00000000E+00  5.51736505E-03  4.10888286E-02
  1.82253821E-01  4.68284594E-01  4.45758173E-01  1.00000000E+00  1.00000000E+00
  5.68883320E-02  3.12940593E-01  7.60650165E-01  1.00000000E+00  1.00000000E+00
  3.34854848E-02  2.34721871E-01  8.13770285E-01  1.00000000E+00  3.34854848E-02
  2.34721871E-01  8.13770285E-01  1.00000000E+00  3.34854848E-02  2.34721871E-01
  8.13770285E-01  1.00000000E+00
Coordinates of each shell                  R   N=          99
 -3.14928453E+00 -2.18996733E+00  3.94430453E-30 -3.14928453E+00 -2.18996733E+00
  3.94430453E-30 -3.14928453E+00 -2.18996733E+00  3.94430453E-30 -3.14928453E+00
 -2.18996733E+00  3.94430453E-30 -3.14928453E+00 -2.18996733E+00  3.94430453E-30
 -3.14928453E+00 -2.18996733E+00  3.94430453E-30 -9.63196863E-01 -1.80617569E+00
  6.70531769E-30 -9.63196863E-01 -1.80617569E+00  6.70531769E-30 -9.63196863E-01
 -1.80617569E+00  6.70531769E-30 -9.63196863E-01 -1.80617569E+00  6.70531769E-30
 -9.63196863E-01 -1.80617569E+00  6.70531769E-30 -9.63196863E-01 -1.80617569E+00
  6.70531769E-30 -1.11022302E-16  1.46059067E+00 -7.98721667E-30 -1.11022302E-16
  1.46059067E+00 -7.98721667E-30 -1.11022302E-16  1.46059067E+00 -7.98721667E-30
 -1.11022302E-16  1.46059067E+00 -7.98721667E-30 -1.11022302E-16  1.46059067E+00
 -7.98721667E-30 -1.11022302E-16  1.46059067E+00 -7.98721667E-30 -1.11022302E-16
  1.46059067E+00 -7.98721667E-30 -1.11022302E-16  1.46059067E+00 -7.98721667E-30
 -1.11022302E-16  1.46059067E+00 -7.98721667E-30  3.31755804E+00  7.87201931E-01
  6.31088724E-30  3.31755804E+00  7.87201931E-01  6.31088724E-30  3.31755804E+00
  7.87201931E-01  6.31088724E-30  3.31755804E+00  7.87201931E-01  6.31088724E-30
  3.31755804E+00  7.87201931E-01  6.31088724E-30  3.31755804E+00  7.87201931E-01
  6.31088724E-30  4.30786008E+00  2.61933067E+00  0.00000000E+00  4.30786008E+00
  2.61933067E+00  0.00000000E+00  3.86172299E+00 -2.74512273E-01  1.70558607E+00
  3.86172299E+00 -2.74512273E-01  1.70558607E+00  3.86172299E+00 -2.74512273E-01
 -1.70558607E+00  3.86172299E+00 -2.74512273E-01 -1.70558607E+00
Constraint Structure                       R   N=          21
 -3.13347803E+00 -1.94533287E+00  0.00000000E+00 -5.25105591E-01 -1.50297519E+00
  0.00000000E+00  1.11022302E-16  1.52260033E+00  0.00000000E+00  2.98267452E+00
  2.79296889E-01  2.46519033E-32  4.36234363E+00  1.80622647E+00  0.00000000E+00
  3.24258633E+00 -8.80061895E-01  1.68027791E+00  3.24258633E+00 -8.80061895E-01
 -1.68027791E+00
Num ILSW                                   I              100
ILSW                                       I   N=         100
           0           0           0           0           2           0
           0           0           0           0        1009          -1
           0           0           0           0           2           0
           0           0           0           0           1           0
           1           0           0           0           0           0
           0           0      100000           0          -1           0
           0           0           0           0           0           0
           0           0           0           1           0           0
           0           0           1           0           0           0
           0           0           4          41           0           0
           0           0          13           0           0           0
           0           0           0           7           0           0
           0           0           0           0           0           0
           0           0           0           0           0           0
           0           0           0           0           0           0
           0           0           0           0           0           0
           0           0           0           0
Num RLSW                                   I               41
RLSW                                       R   N=          41
  7.50000000E-01  7.50000000E-01  1.00000000E+00  1.00000000E+00  2.50000000E-01
  0.00000000E+00  0.00000000E+00  1.00000000E+00  0.00000000E+00  0.00000000E+00
  0.00000000E+00  0.00000000E+00  1.00000000E+00  0.00000000E+00  0.00000000E+00
  0.00000000E+00  0.00000000E+00  1.00000000E+00  0.00000000E+00  0.00000000E+00
  0.00000000E+00  0.00000000E+00  1.00000000E+00  0.00000000E+00  0.00000000E+00
  0.00000000E+00  0.00000000E+00  1.00000000E+00  0.00000000E+00  0.00000000E+00
  0.00000000E+00  0.00000000E+00  1.00000000E+00  0.00000000E+00  0.00000000E+00
  0.00000000E+00  0.00000000E+00  0.00000000E+00  1.00000000E+00  1.00000000E+00
  0.00000000E+00
MxBond                                     I                4
NBond                                      I   N=           7
           1           2           2           4           1           1
           1
IBond                                      I   N=          28
           2           0           0           0           1           3
           0           0           2           4           0           0
           3           5           6           7           4           0
           0           0           4           0           0           0
           4           0           0           0
RBond                                      R   N=          28
  1.00000000E+00  0.00000000E+00  0.00000000E+00  0.00000000E+00  1.00000000E+00
  1.00000000E+00  0.00000000E+00  0.00000000E+00  1.00000000E+00  1.00000000E+00
  0.00000000E+00  0.00000000E+00  1.00000000E+00  1.00000000E+00  1.00000000E+00
  1.00000000E+00  1.00000000E+00  0.00000000E+00  0.00000000E+00  0.00000000E+00
  1.00000000E+00  0.00000000E+00  0.00000000E+00  0.00000000E+00  1.00000000E+00
  0.00000000E+00  0.00000000E+00  0.00000000E+00
Virial Ratio                               R      2.003131383132360E+00
SCF Energy                                 R     -5.674074101699545E+02
Total Energy                               R     -5.674074101699545E+02
RMS Force                                  R      6.025908874408923E-05
RMS Density                                R      7.132124761252565E-09
External E-field                           R   N=          35
  0.00000000E+00  0.00000000E+00  0.00000000E+00  0.00000000E+00  0.00000000E+00
  0.00000000E+00  0.00000000E+00  0.00000000E+00  0.00000000E+00  0.00000000E+00
  0.00000000E+00  0.00000000E+00  0.00000000E+00  0.00000000E+00  0.00000000E+00
  0.00000000E+00  0.00000000E+00  0.00000000E+00  0.00000000E+00  0.00000000E+00
  0.00000000E+00  0.00000000E+00  0.00000000E+00  0.00000000E+00  0.00000000E+00
  0.00000000E+00  0.00000000E+00  0.00000000E+00  0.00000000E+00  0.00000000E+00
  0.00000000E+00  0.00000000E+00  0.00000000E+00  0.00000000E+00  0.00000000E+00
IOpCl                                      I                0
IROHF                                      I                0
Alpha Orbital Energies                     R   N=          71
 -8.90287940E+01 -1.92856049E+01 -1.45333659E+01 -1.02685934E+01 -8.03131627E+00
 -5.97270811E+00 -5.96948537E+00 -5.96442351E+00 -1.22181016E+00 -8.47008779E-01
 -7.22035385E-01 -6.18721428E-01 -5.22443524E-01 -5.02214745E-01 -4.94877989E-01
 -4.56554796E-01 -4.37982549E-01 -3.83728231E-01 -2.75661933E-01 -2.46077906E-01
 -8.17885142E-02  7.22179690E-04  6.66774310E-02  1.01896693E-01  1.16533964E-01
  1.26883182E-01  2.92013362E-01  3.83034218E-01  3.98971587E-01  4.28231869E-01
  4.79582131E-01  5.52844421E-01  5.86746769E-01  6.16375354E-01  6.52322229E-01
  6.62398757E-01  6.84461431E-01  6.95595770E-01  6.99370317E-01  7.00024970E-01
  7.48614447E-01  7.57075740E-01  8.32857136E-01  8.72961674E-01  9.05963379E-01
  9.43528963E-01  9.91820787E-01  1.03455350E+00  1.05613997E+00  1.13902227E+00
  1.39042675E+00  1.69094027E+00  1.71849025E+00  1.90026980E+00  1.97275288E+00
  2.05336659E+00  2.09124635E+00  2.10846129E+00  2.12498516E+00  2.29031484E+00
  2.64071927E+00  2.65639353E+00  2.68266514E+00  3.22402311E+00  3.24660493E+00
  3.69036233E+00  4.63439136E+00  4.65255890E+00  4.68912741E+00  4.77899555E+00
  4.93153935E+00
Alpha MO coefficients                      R   N=        5041
 -2.41354057E-05 -2.22407491E-04  3.57893293E-04 -2.94034373E-05 -9.33446833E-05
  0.00000000E+00  8.29179681E-05  3.91797365E-04  0.00000000E+00 -2.68151458E-05
  0.00000000E+00  0.00000000E+00 -3.38264676E-05  3.19583566E-05 -1.58061105E-05
  9.44846491E-06  5.89842038E-04 -4.35483716E-05 -5.55564792E-05  0.00000000E+00
  1.16538187E-04 -1.98215575E-04  0.00000000E+00  1.83216918E-04  0.00000000E+00
  0.00000000E+00  2.45460303E-04 -5.54232231E-05  9.94259424E-01 -2.16588731E-02
  9.84309793E-03 -7.04789394E-03  9.66998048E-05 -1.15818760E-04  0.00000000E+00
  3.09684020E-04 -3.94787496E-04  0.00000000E+00 -1.23487542E-03  8.63088353E-04
  0.00000000E+00  1.12868517E-04  0.00000000E+00  0.00000000E+00 -6.47569666E-05
  3.80554372E-05 -2.33037036E-05  0.00000000E+00  0.00000000E+00  1.07301728E-05
 -7.70112460E-06  4.47495570E-05 -1.54833700E-04  1.64318193E-03  2.01816189E-04
 -6.26037483E-05  0.00000000E+00 -1.08518502E-03  1.59027530E-04  0.00000000E+00
  1.91130679E-04  0.00000000E+00  0.00000000E+00 -2.78276415E-04  1.54894391E-04
 -1.44756017E-04  2.34397345E-04 -1.40855097E-04  2.08933421E-04 -1.40855097E-04
  2.08933421E-04  9.89053519E-01 -3.95070402E-02  2.80462845E-02 -2.97590136E-03
 -6.32714284E-04  0.00000000E+00  8.36283789E-03  1.77633128E-03  0.00000000E+00
  1.91043105E-04  0.00000000E+00  0.00000000E+00 -3.09931636E-04 -5.18042170E-05
  4.10935996E-04  1.31472967E-03 -1.45159297E-02  1.55003854E-03  1.06851293E-04
  0.00000000E+00  8.67926295E-03  6.37359450E-04  0.00000000E+00 -6.66750196E-04
  0.00000000E+00  0.00000000E+00  1.25505525E-03  4.41303371E-04 -1.43454516E-05
 -1.20628831E-04  2.05977044E-04  2.09747641E-03 -9.82669874E-05 -5.14576390E-05
  0.00000000E+00 -5.37426026E-04 -2.48668361E-04  0.00000000E+00  9.22710675E-04
 -6.42823406E-04  0.00000000E+00 -2.72863820E-05  0.00000000E+00  0.00000000E+00
  1.06473615E-04  2.98938485E-04 -1.13890829E-05  0.00000000E+00  0.00000000E+00
 -1.52179561E-05 -3.76590958E-05 -4.54200883E-05  8.50202873E-04 -3.42479395E-03
 -1.01529888E-04 -1.43847113E-04  0.00000000E+00  1.21354333E-03  9.16474379E-04
  0.00000000E+00  6.49334242E-06  0.00000000E+00  0.00000000E+00 -8.69726974E-05
 -5.77354602E-06  1.00645425E-05 -2.27705034E-04  2.99375835E-04  7.07272318E-04
  2.99375835E-04  7.07272318E-04  2.37345162E-04  9.51682002E-04  3.65866908E-03
  1.84337071E-03  3.91318150E-04  0.00000000E+00  4.39183757E-03 -2.68066806E-04
  0.00000000E+00 -1.20059866E-03  0.00000000E+00  0.00000000E+00  1.90556694E-03
  5.22666296E-04  9.89244613E-01 -3.96082451E-02  1.54095872E-02 -3.06528097E-03
  1.43499611E-03  0.00000000E+00  3.69683363E-03  5.54066158E-03  0.00000000E+00
  8.01301532E-04  0.00000000E+00  0.00000000E+00 -1.79602129E-03 -5.74119007E-04
 -2.22603051E-05 -1.39787255E-04  1.08757303E-03 -5.66570008E-03 -8.63351070E-07
 -7.15226413E-05  0.00000000E+00  1.58191292E-04  5.38534108E-05  0.00000000E+00
  9.84864781E-04  3.69896470E-03  0.00000000E+00  1.26157446E-04  0.00000000E+00
  0.00000000E+00 -2.34643700E-05 -1.73434199E-04  3.18613154E-05  0.00000000E+00
  0.00000000E+00  9.62008687E-05 -2.24064528E-05 -6.08193872E-05  9.27502227E-04
 -5.42111995E-04 -4.77826308E-04 -3.15885835E-04  0.00000000E+00  1.14098385E-03
  2.10406800E-03  0.00000000E+00 -4.20865518E-05  0.00000000E+00  0.00000000E+00
 -1.44211700E-06 -1.86342138E-05 -3.85926804E-04 -1.29957958E-03  5.48869862E-04
  1.69329967E-04  5.48869862E-04  1.69329967E-04 -4.53162525E-05 -6.10495644E-04
  4.25973555E-03 -2.77228979E-05  2.52154945E-05  0.00000000E+00  1.87805958E-03
  2.43958601E-04  0.00000000E+00 -6.52075186E-05  0.00000000E+00  0.00000000E+00
  1.04032294E-04  4.14372268E-05 -6.69339951E-05 -4.80475044E-04 -2.37944527E-03
  2.18372303E-04  8.49711345E-05  0.00000000E+00  3.82385532E-03  6.40850313E-04
  0.00000000E+00  8.31555471E-05  0.00000000E+00  0.00000000E+00 -4.17258437E-05
  2.81118732E-05  4.34894875E-05  3.30741676E-04 -5.24860107E-04  5.51313815E-03
 -2.23207058E-04  5.11397623E-05  0.00000000E+00 -5.03714827E-04  1.48136855E-04
  0.00000000E+00  1.94909882E-03 -2.70831743E-04  0.00000000E+00  9.23205691E-04
  0.00000000E+00  0.00000000E+00 -1.10721138E-03  7.29228448E-04 -1.62753346E-04
  0.00000000E+00  0.00000000E+00  2.04897212E-04 -1.30675351E-04  9.88819396E-01
  4.58630067E-02 -4.29660591E-02 -4.30008738E-04 -3.44871061E-05  0.00000000E+00
  9.34327271E-05  9.62723489E-04  0.00000000E+00  2.68897238E-05  0.00000000E+00
  0.00000000E+00 -1.43541060E-04  3.89493840E-05 -1.79745730E-03  8.54669867E-03
 -1.41378048E-03  9.34156457E-03 -1.41378048E-03  9.34156457E-03 -5.17757939E-05
 -5.14887700E-04  1.07730614E-03 -2.96227554E-05 -1.95704699E-04  0.00000000E+00
  2.11656688E-04  1.06016805E-03  0.00000000E+00 -5.07978939E-05  0.00000000E+00
  0.00000000E+00 -7.97996057E-05  7.92642137E-05 -7.15847108E-05 -5.12750181E-05
  1.05536729E-03 -1.43597790E-05  5.59040604E-05  0.00000000E+00  3.42056573E-04
 -8.75818170E-04  0.00000000E+00  5.25850733E-04  0.00000000E+00  0.00000000E+00
  6.53201495E-04 -2.35713324E-04  3.06596586E-01  1.02164281E+00  4.79346303E-02
 -2.09656502E-02 -4.53171415E-03  4.47144936E-03  0.00000000E+00  1.20517837E-03
 -1.44302319E-03  0.00000000E+00 -2.77144800E-03  1.66258802E-03  0.00000000E+00
 -1.23824812E-04  0.00000000E+00  0.00000000E+00 -1.14897430E-04  1.64480246E-04
 -6.14594180E-04  0.00000000E+00  0.00000000E+00  8.11915824E-05  2.20013311E-04
  1.17861816E-04 -3.73261134E-04  2.82462339E-03  7.77651833E-04 -2.01444718E-04
  0.00000000E+00 -2.50922374E-03  3.73401188E-04  0.00000000E+00  5.00067618E-04
  0.00000000E+00  0.00000000E+00 -7.47301389E-04  3.78265477E-04 -2.07058558E-04
  8.93565642E-04 -1.96716812E-04  7.80780557E-04 -1.96716812E-04  7.80780557E-04
 -9.24721426E-05 -9.90424070E-04  2.31100102E-03 -1.07141075E-04 -3.10427874E-04
  0.00000000E+00  8.40340413E-04  1.75398562E-03  0.00000000E+00 -1.16910753E-04
  0.00000000E+00  0.00000000E+00 -8.15078047E-05  1.67612373E-04  1.96905773E-06
  6.86905981E-04 -2.09161586E-03 -1.67225313E-04 -1.89788505E-04  0.00000000E+00
 -7.94824238E-05 -2.01096752E-03  0.00000000E+00  6.13631735E-04  0.00000000E+00
  0.00000000E+00  7.46886212E-04 -3.70894068E-04  2.87895619E-04  9.90115215E-04
 -6.37808384E-04  3.62298577E-03  7.83555403E-01  5.91741016E-01  0.00000000E+00
 -4.04795373E-02 -3.02132535E-02  0.00000000E+00  8.36672408E-03  3.96065640E-03
  0.00000000E+00 -2.58904742E-04  0.00000000E+00  0.00000000E+00 -7.62220121E-04
  4.96898496E-04  8.69654105E-05  0.00000000E+00  0.00000000E+00 -8.45974628E-04
 -9.37247339E-06 -6.75229287E-05 -1.21939036E-05 -2.60286731E-03 -4.24762679E-04
  1.87465220E-04  0.00000000E+00  1.24785686E-03 -1.43481385E-03  0.00000000E+00
 -4.25873664E-04  0.00000000E+00  0.00000000E+00  7.93205384E-04 -4.25395231E-04
  5.08773808E-04 -4.08504861E-04 -9.14931929E-06 -1.58321799E-04 -9.14931929E-06
 -1.58321799E-04  1.83032095E-05  2.82237997E-04 -1.58005206E-03 -4.06247372E-05
 -4.35287792E-06  0.00000000E+00 -6.69790645E-04 -2.95307133E-04  0.00000000E+00
  3.67393432E-05  0.00000000E+00  0.00000000E+00 -6.11168801E-05 -1.09769237E-04
 -2.17609494E-05 -9.36478525E-05  3.92153944E-03  3.15689541E-05  9.88642977E-05
  0.00000000E+00 -2.23980660E-04  7.23508686E-04  0.00000000E+00  2.78327623E-04
  0.00000000E+00  0.00000000E+00  5.50697956E-04 -2.70586814E-04 -2.16319426E-03
 -7.85440318E-03  3.68809354E-03 -7.52016562E-03 -5.91762741E-01  7.83768635E-01
  0.00000000E+00  3.03034896E-02 -3.97953193E-02  0.00000000E+00 -7.37765476E-03
  8.80230616E-03  0.00000000E+00  8.87057480E-05  0.00000000E+00  0.00000000E+00
  7.71771788E-05 -1.73579504E-04 -5.55050622E-04  0.00000000E+00  0.00000000E+00
 -2.43232755E-04 -1.07338130E-03  8.05678218E-05 -4.13487389E-04  5.70514917E-03
  3.94587207E-04 -1.68218360E-04  0.00000000E+00 -2.45726817E-03 -2.29739109E-05
  0.00000000E+00  5.37035582E-04  0.00000000E+00  0.00000000E+00 -7.60134830E-04
  3.08823710E-04 -1.38168420E-04 -6.10763673E-04 -3.81365388E-04  7.69216213E-05
 -3.81365388E-04  7.69216213E-05  0.00000000E+00  0.00000000E+00  0.00000000E+00
  0.00000000E+00  0.00000000E+00  5.50427130E-05  0.00000000E+00  0.00000000E+00
 -1.88756374E-05  0.00000000E+00  2.90270544E-05 -3.90342648E-05  0.00000000E+00
  0.00000000E+00  0.00000000E+00  0.00000000E+00  0.00000000E+00  0.00000000E+00
  0.00000000E+00 -9.68526865E-05  0.00000000E+00  0.00000000E+00 -8.44235044E-04
  0.00000000E+00  2.90907796E-05  1.71732570E-05  0.00000000E+00  0.00000000E+00
  0.00000000E+00  0.00000000E+00  0.00000000E+00  0.00000000E+00  0.00000000E+00
  0.00000000E+00  9.82574841E-01  0.00000000E+00  0.00000000E+00 -4.83346865E-02
  0.00000000E+00  0.00000000E+00  8.05022959E-03  0.00000000E+00  2.61896671E-06
  1.41378715E-06  0.00000000E+00  0.00000000E+00  0.00000000E+00 -7.97662842E-04
  7.36972525E-04  0.00000000E+00  0.00000000E+00  0.00000000E+00  0.00000000E+00
  0.00000000E+00  0.00000000E+00  0.00000000E+00  7.38688224E-05  0.00000000E+00
  0.00000000E+00 -1.37315974E-03  0.00000000E+00 -1.09926042E-04  1.19460022E-04
  0.00000000E+00  0.00000000E+00  0.00000000E+00  0.00000000E+00  3.25442839E-04
 -6.66814594E-05 -3.25442839E-04  6.66814594E-05  2.27418612E-01  4.56161132E-01
  2.20466910E-01  1.86700599E-01  4.06662703E-02  0.00000000E+00  5.17204656E-02
  1.14737438E-02  0.00000000E+00 -7.32715897E-03  0.00000000E+00  0.00000000E+00
  1.54380304E-02  7.52977865E-03  1.78017882E-01  3.63260354E-01  8.85944647E-02
  2.04196626E-01  9.17847267E-03  0.00000000E+00 -2.56847448E-02  1.24202016E-02
  0.00000000E+00 -1.41046706E-02  0.00000000E+00  0.00000000E+00  2.04977762E-02
  5.54361342E-03 -5.71653657E-03 -3.44987136E-02  4.76601125E-02  2.70793929E-03
 -6.03875126E-03 -1.35709110E-02  0.00000000E+00 -8.99341710E-03 -2.08344383E-02
  0.00000000E+00 -4.74477172E-03 -5.70947400E-03  0.00000000E+00 -4.92984211E-03
  0.00000000E+00  0.00000000E+00 -4.78720182E-03  6.62163879E-03 -9.73310360E-04
  0.00000000E+00  0.00000000E+00 -9.33542497E-04  1.20580182E-03 -2.24867911E-03
  3.69697786E-03  3.55174072E-03 -2.66015904E-03 -2.12608286E-04  0.00000000E+00
 -2.70764782E-03 -7.63383584E-04  0.00000000E+00 -2.96114834E-04  0.00000000E+00
  0.00000000E+00  5.75249941E-04  1.31868466E-04  4.98102275E-04  8.82337813E-04
  2.83329430E-04 -4.12085846E-06  2.83329430E-04 -4.12085846E-06 -7.76822457E-02
 -1.63260070E-01 -1.15670318E-01 -6.80710346E-03  2.78688656E-02  0.00000000E+00
  4.34279900E-04  7.46090841E-03  0.00000000E+00 -1.26880071E-03  0.00000000E+00
  0.00000000E+00 -1.35364617E-03  3.39532656E-03  7.91666318E-02  1.66974899E-01
  1.02222595E-01 -1.05064896E-01 -1.25942424E-01  0.00000000E+00  3.13600408E-02
  5.27204032E-02  0.00000000E+00 -1.80733968E-03  0.00000000E+00  0.00000000E+00
 -1.47875593E-02  1.00385358E-03 -5.71423456E-02 -3.55481014E-01  4.95505717E-01
  2.03773820E-01  3.22825579E-02 -4.45481766E-02  0.00000000E+00  5.23432111E-02
 -7.41561499E-02  0.00000000E+00  4.85130235E-02 -4.86503268E-02  0.00000000E+00
 -2.88702882E-02  0.00000000E+00  0.00000000E+00  3.57501607E-04  1.50870569E-03
 -4.15410659E-03  0.00000000E+00  0.00000000E+00  4.54190222E-04  2.07909343E-04
 -1.40444902E-01  2.85701699E-01  6.96230564E-02 -7.04223707E-02  1.01109484E-02
  0.00000000E+00 -8.08130071E-03  4.15467237E-03  0.00000000E+00 -3.87277883E-03
  0.00000000E+00  0.00000000E+00  5.43833567E-03 -1.94654832E-03  6.86684713E-02
  1.91959178E-03  6.95907152E-02  1.15652277E-03  6.95907152E-02  1.15652277E-03
  1.11419228E-01  2.30349825E-01  2.26320537E-01 -6.93683854E-02 -5.80780625E-02
  0.00000000E+00 -2.22560350E-02 -1.52933765E-02  0.00000000E+00  3.62866684E-03
  0.00000000E+00  0.00000000E+00 -1.87799564E-03 -5.26222247E-03 -1.30384995E-01
 -2.84116120E-01 -2.13827008E-01  8.49234860E-02  1.32777193E-01  0.00000000E+00
 -2.21021297E-02 -7.24494631E-02  0.00000000E+00  1.74821113E-03  0.00000000E+00
  0.00000000E+00  1.37633936E-02  1.87435497E-03  1.21669726E-02  7.69718980E-02
 -1.19726383E-01 -1.45986374E-02  6.20669522E-02  4.82969691E-02  0.00000000E+00
  1.03345284E-01  8.31827778E-02  0.00000000E+00  7.87993830E-02  4.01862849E-02
  0.00000000E+00  2.90893846E-03  0.00000000E+00  0.00000000E+00  4.53170361E-02
 -1.98441724E-02  7.29261784E-04  0.00000000E+00  0.00000000E+00  7.60956213E-03
 -3.66570253E-03 -1.92801442E-01  3.99170073E-01  1.52570607E-01  3.36704801E-02
  1.99681610E-02  0.00000000E+00  1.77958525E-02  6.97367160E-03  0.00000000E+00
  1.38545611E-03  0.00000000E+00  0.00000000E+00 -4.07048500E-03 -1.19237408E-03
  1.47012039E-01  6.29610873E-03  1.27059176E-01  7.63131415E-03  1.27059176E-01
  7.63131415E-03  1.32317513E-01  2.72652732E-01  2.80550030E-01 -2.66451469E-01
  1.48658065E-02  0.00000000E+00 -1.31652868E-01  1.29768311E-02  0.00000000E+00
  7.69735099E-03  0.00000000E+00  0.00000000E+00 -1.31340255E-02  3.47816617E-04
 -1.43367163E-01 -3.26866199E-01 -1.88584685E-01 -2.25679719E-02 -8.52135715E-02
  0.00000000E+00 -2.79056915E-02  2.81058593E-02  0.00000000E+00 -1.66755945E-03
  0.00000000E+00  0.00000000E+00 -3.11638574E-03 -6.57742448E-03 -4.54704800E-02
 -2.88413581E-01  4.20244653E-01  2.21950087E-01  1.69887959E-03  2.85044599E-02
  0.00000000E+00  7.38361461E-03  4.71068454E-02  0.00000000E+00 -1.78105215E-02
  3.85703126E-02  0.00000000E+00  3.75636659E-04  0.00000000E+00  0.00000000E+00
  1.13459864E-02  2.68122004E-03  5.90403069E-04  0.00000000E+00  0.00000000E+00
  2.45010492E-03 -2.99884860E-04  8.56933902E-02 -1.80697910E-01 -7.53509218E-02
 -1.24704393E-01  4.44432403E-02  0.00000000E+00 -4.73954160E-02  2.27734226E-02
  0.00000000E+00 -6.00440293E-03  0.00000000E+00  0.00000000E+00  8.07720810E-03
 -4.78967881E-03 -8.17735743E-02 -1.52557199E-02 -1.00533126E-01 -1.47408907E-02
 -1.00533126E-01 -1.47408907E-02 -5.89594675E-02 -1.14012579E-01 -1.64676076E-01
  3.13588511E-01 -1.80170224E-01  0.00000000E+00  1.63127704E-01 -1.01209649E-01
  0.00000000E+00 -6.16014600E-03  0.00000000E+00  0.00000000E+00  1.51915354E-02
 -1.07654734E-02 -5.21598889E-03  5.99226800E-03 -8.39973722E-02  1.84287479E-01
  2.78061048E-01  0.00000000E+00 -5.81249772E-02 -1.43408132E-01  0.00000000E+00
  2.17839307E-04  0.00000000E+00  0.00000000E+00  1.53102022E-02  1.62426650E-02
 -2.53886752E-02 -1.62334335E-01  2.44775724E-01  1.46463692E-01  6.17280667E-02
  9.51520163E-02  0.00000000E+00  1.07784737E-01  1.62887715E-01  0.00000000E+00
  9.24883164E-02  1.45586200E-01  0.00000000E+00  9.90527854E-03  0.00000000E+00