trans-mesno                                                             
FOpt      RB3LYP                                                      Aug-CC-pVDZ         
Number of atoms                            I                7
Info1-9                                    I   N=           9
          34          32           0           0           0         110
           2          18        -502
Charge                                     I                0
Multiplicity                               I                1
Number of electrons                        I               40
Number of alpha electrons                  I               20
Number of beta electrons                   I               20
Number of basis functions                  I              123
Number of independent functions            I              123
Number of point charges in /Mol/           I                0
Number of translation vectors              I                0
Atomic numbers                             I   N=           7
           8           7          16           6           1           1
           1
Nuclear charges                            R   N=           7
  8.00000000E+00  7.00000000E+00  1.60000000E+01  6.00000000E+00  1.00000000E+00
  1.00000000E+00  1.00000000E+00
Current cartesian coordinates              R   N=          21
 -3.19845087E+00 -2.23229045E+00  2.20881053E-29 -9.90014075E-01 -1.87403994E+00
  1.10440527E-29 -1.66533454E-16  1.48934534E+00 -1.34106354E-29  3.38865669E+00
  8.24135208E-01 -8.67746996E-30  4.35453833E+00  2.65739854E+00 -2.52435490E-29
  3.91561349E+00 -2.27566011E-01  1.70320862E+00  3.91561349E+00 -2.27566011E-01
 -1.70320862E+00
Force Field                                I                0
Int Atom Types                             I   N=           7
           0           0           0           0           0           0
           0
MM charges                                 R   N=           7
  0.00000000E+00  0.00000000E+00  0.00000000E+00  0.00000000E+00  0.00000000E+00
  0.00000000E+00  0.00000000E+00
Integer atomic weights                     I   N=           7
          16          14          32          12           1           1
           1
Real atomic weights                        R   N=           7
  1.59949146E+01  1.40030740E+01  3.19720718E+01  1.20000000E+01  1.00782504E+00
  1.00782504E+00  1.00782504E+00
Atom fragment info                         I   N=           7
           0           0           0           0           0           0
           0
Atom residue num                           I   N=           7
           0           0           0           0           0           0
           0
Nuclear spins                              I   N=           7
           0           2           0           0           1           1
           1
Nuclear ZEff                               R   N=           7
 -5.60000000E+00 -4.55000000E+00 -1.36000000E+01 -3.60000000E+00 -1.00000000E+00
 -1.00000000E+00 -1.00000000E+00
Nuclear ZNuc                               R   N=           7
  8.00000000E+00  7.00000000E+00  1.60000000E+01  6.00000000E+00  1.00000000E+00
  1.00000000E+00  1.00000000E+00
Nuclear QMom                               R   N=           7
  0.00000000E+00  2.04400000E+00  0.00000000E+00  0.00000000E+00  0.00000000E+00
  0.00000000E+00  0.00000000E+00
Nuclear GFac                               R   N=           7
  0.00000000E+00  4.03761000E-01  0.00000000E+00  0.00000000E+00  2.79284600E+00
  2.79284600E+00  2.79284600E+00
MicOpt                                     I   N=           7
          -1          -1          -1          -1          -1          -1
          -1
Number of contracted shells                I               53
Number of primitive shells                 I              133
Pure/Cartesian d shells                    I                0
Pure/Cartesian f shells                    I                0
Highest angular momentum                   I                2
Largest degree of contraction              I                9
Shell types                                I   N=          53
           0           0           0           0           1           1
           1          -2          -2           0           0           0
           0           1           1           1          -2          -2
           0           0           0           0           0           1
           1           1           1          -2          -2           0
           0           0           0           1           1           1
          -2          -2           0           0           0           1
           1           0           0           0           1           1
           0           0           0           1           1
Number of primitives per shell             I   N=          53
           7           7           1           1           3           1
           1           1           1           7           7           1
           1           3           1           1           1           1
           9           8           8           1           1           6
           6           1           1           1           1           7
           7           1           1           3           1           1
           1           1           3           1           1           1
           1           3           1           1           1           1
           3           1           1           1           1
Shell to atom map                          I   N=          53
           1           1           1           1           1           1
           1           1           1           2           2           2
           2           2           2           2           2           2
           3           3           3           3           3           3
           3           3           3           3           3           4
           4           4           4           4           4           4
           4           4           5           5           5           5
           5           6           6           6           6           6
           7           7           7           7           7
Primitive exponents                        R   N=         133
  1.17200000E+04  1.75900000E+03  4.00800000E+02  1.13700000E+02  3.70300000E+01
  1.32700000E+01  5.02500000E+00  1.17200000E+04  4.00800000E+02  1.13700000E+02
  3.70300000E+01  1.32700000E+01  5.02500000E+00  1.01300000E+00  3.02300000E-01
  7.89600000E-02  1.77000000E+01  3.85400000E+00  1.04600000E+00  2.75300000E-01
  6.85600000E-02  1.18500000E+00  3.32000000E-01  9.04600000E+03  1.35700000E+03
  3.09300000E+02  8.77300000E+01  2.85600000E+01  1.02100000E+01  3.83800000E+00
  9.04600000E+03  3.09300000E+02  8.77300000E+01  2.85600000E+01  1.02100000E+01
  3.83800000E+00  7.46600000E-01  2.24800000E-01  6.12400000E-02  1.35500000E+01
  2.91700000E+00  7.97300000E-01  2.18500000E-01  5.61100000E-02  8.17000000E-01
  2.30000000E-01  1.10800000E+05  1.66100000E+04  3.78100000E+03  1.07100000E+03
  3.49800000E+02  1.26300000E+02  4.92600000E+01  2.01600000E+01  5.72000000E+00
  3.78100000E+03  1.07100000E+03  3.49800000E+02  1.26300000E+02  4.92600000E+01
  2.01600000E+01  5.72000000E+00  2.18200000E+00  3.78100000E+03  1.07100000E+03
  1.26300000E+02  4.92600000E+01  2.01600000E+01  5.72000000E+00  2.18200000E+00
  4.32700000E-01  1.57000000E-01  5.07000000E-02  3.99700000E+02  9.41900000E+01
  2.97500000E+01  1.07700000E+01  4.11900000E+00  1.62500000E+00  9.41900000E+01
  2.97500000E+01  1.07700000E+01  4.11900000E+00  1.62500000E+00  4.72600000E-01
  1.40700000E-01  3.99000000E-02  4.79000000E-01  1.52000000E-01  6.66500000E+03
  1.00000000E+03  2.28000000E+02  6.47100000E+01  2.10600000E+01  7.49500000E+00
  2.79700000E+00  6.66500000E+03  2.28000000E+02  6.47100000E+01  2.10600000E+01
  7.49500000E+00  2.79700000E+00  5.21500000E-01  1.59600000E-01  4.69000000E-02
  9.43900000E+00  2.00200000E+00  5.45600000E-01  1.51700000E-01  4.04100000E-02
  5.50000000E-01  1.51000000E-01  1.30100000E+01  1.96200000E+00  4.44600000E-01
  1.22000000E-01  2.97400000E-02  7.27000000E-01  1.41000000E-01  1.30100000E+01
  1.96200000E+00  4.44600000E-01  1.22000000E-01  2.97400000E-02  7.27000000E-01
  1.41000000E-01  1.30100000E+01  1.96200000E+00  4.44600000E-01  1.22000000E-01
  2.97400000E-02  7.27000000E-01  1.41000000E-01
Contraction coefficients                   R   N=         133
  7.11864434E-04  5.48520199E-03  2.79099296E-02  1.05133208E-01  2.84002490E-01
  4.51673946E-01  2.73208126E-01  7.69030046E-06  3.13484579E-04 -2.96614853E-03
 -1.08753543E-02 -1.20753817E-01 -1.06275264E-01  1.09597548E+00  1.00000000E+00
  1.00000000E+00  6.26791663E-02  3.33536566E-01  7.41239642E-01  1.00000000E+00
  1.00000000E+00  1.00000000E+00  1.00000000E+00  7.01708743E-04  5.40299880E-03
  2.74729510E-02  1.03514580E-01  2.79586579E-01  4.51317241E-01  2.80626875E-01
  7.77446797E-06  3.00742072E-04 -2.80016549E-03 -9.89708505E-03 -1.14331114E-01
 -1.18162383E-01  1.09786885E+00  1.00000000E+00  1.00000000E+00  5.89056768E-02
  3.20461107E-01  7.53042062E-01  1.00000000E+00  1.00000000E+00  1.00000000E+00
  1.00000000E+00  2.47326450E-04  1.91784961E-03  9.94916493E-03  4.02460657E-02
  1.28427229E-01  3.03028122E-01  4.20536130E-01  2.30222812E-01  2.02131090E-02
 -5.70425820E-05 -1.86038802E-04 -3.42700926E-03 -1.56230464E-02 -8.13038611E-02
 -5.83105948E-02  5.04676433E-01  5.99457921E-01 -7.06030825E-06  2.62827525E-05
  1.43025203E-03  4.15087004E-03  1.07143328E-02 -1.13704112E-01 -4.13480735E-01
  1.21911288E+00  1.00000000E+00  1.00000000E+00  4.49209853E-03  3.42942343E-02
  1.44817316E-01  3.55275539E-01  4.61319195E-01  2.05629925E-01  3.59112097E-04
 -2.64993410E-03 -2.50097780E-03 -4.70496051E-02  1.37165178E-01  9.23540889E-01
  1.00000000E+00  1.00000000E+00  1.00000000E+00  1.00000000E+00  6.93516317E-04
  5.34150243E-03  2.71366714E-02  1.01992385E-01  2.75508636E-01  4.51086433E-01
  2.87565745E-01  7.73354740E-06  2.78072137E-04 -2.57875654E-03 -8.95087684E-03
 -1.06058855E-01 -1.31517686E-01  1.09948660E+00  1.00000000E+00  1.00000000E+00
  5.69792516E-02  3.13207212E-01  7.60376742E-01  1.00000000E+00  1.00000000E+00
  1.00000000E+00  1.00000000E+00  3.34987264E-02  2.34800801E-01  8.13682958E-01
  1.00000000E+00  1.00000000E+00  1.00000000E+00  1.00000000E+00  3.34987264E-02
  2.34800801E-01  8.13682958E-01  1.00000000E+00  1.00000000E+00  1.00000000E+00
  1.00000000E+00  3.34987264E-02  2.34800801E-01  8.13682958E-01  1.00000000E+00
  1.00000000E+00  1.00000000E+00  1.00000000E+00
Coordinates of each shell                  R   N=         159
 -3.19845087E+00 -2.23229045E+00  2.36658272E-30 -3.19845087E+00 -2.23229045E+00
  2.36658272E-30 -3.19845087E+00 -2.23229045E+00  2.36658272E-30 -3.19845087E+00
 -2.23229045E+00  2.36658272E-30 -3.19845087E+00 -2.23229045E+00  2.36658272E-30
 -3.19845087E+00 -2.23229045E+00  2.36658272E-30 -3.19845087E+00 -2.23229045E+00
  2.36658272E-30 -3.19845087E+00 -2.23229045E+00  2.36658272E-30 -3.19845087E+00
 -2.23229045E+00  2.36658272E-30 -9.90014075E-01 -1.87403994E+00  3.94430453E-30
 -9.90014075E-01 -1.87403994E+00  3.94430453E-30 -9.90014075E-01 -1.87403994E+00
  3.94430453E-30 -9.90014075E-01 -1.87403994E+00  3.94430453E-30 -9.90014075E-01
 -1.87403994E+00  3.94430453E-30 -9.90014075E-01 -1.87403994E+00  3.94430453E-30
 -9.90014075E-01 -1.87403994E+00  3.94430453E-30 -9.90014075E-01 -1.87403994E+00
  3.94430453E-30 -9.90014075E-01 -1.87403994E+00  3.94430453E-30 -1.66533454E-16
  1.48934534E+00 -1.18329136E-30 -1.66533454E-16  1.48934534E+00 -1.18329136E-30
 -1.66533454E-16  1.48934534E+00 -1.18329136E-30 -1.66533454E-16  1.48934534E+00
 -1.18329136E-30 -1.66533454E-16  1.48934534E+00 -1.18329136E-30 -1.66533454E-16
  1.48934534E+00 -1.18329136E-30 -1.66533454E-16  1.48934534E+00 -1.18329136E-30
 -1.66533454E-16  1.48934534E+00 -1.18329136E-30 -1.66533454E-16  1.48934534E+00
 -1.18329136E-30 -1.66533454E-16  1.48934534E+00 -1.18329136E-30 -1.66533454E-16
  1.48934534E+00 -1.18329136E-30  3.38865669E+00  8.24135208E-01 -1.57772181E-30
  3.38865669E+00  8.24135208E-01 -1.57772181E-30  3.38865669E+00  8.24135208E-01
 -1.57772181E-30  3.38865669E+00  8.24135208E-01 -1.57772181E-30  3.38865669E+00
  8.24135208E-01 -1.57772181E-30  3.38865669E+00  8.24135208E-01 -1.57772181E-30
  3.38865669E+00  8.24135208E-01 -1.57772181E-30  3.38865669E+00  8.24135208E-01
 -1.57772181E-30  3.38865669E+00  8.24135208E-01 -1.57772181E-30  4.35453833E+00
  2.65739854E+00 -3.94430453E-30  4.35453833E+00  2.65739854E+00 -3.94430453E-30
  4.35453833E+00  2.65739854E+00 -3.94430453E-30  4.35453833E+00  2.65739854E+00
 -3.94430453E-30  4.35453833E+00  2.65739854E+00 -3.94430453E-30  3.91561349E+00
 -2.27566011E-01  1.70320862E+00  3.91561349E+00 -2.27566011E-01  1.70320862E+00
  3.91561349E+00 -2.27566011E-01  1.70320862E+00  3.91561349E+00 -2.27566011E-01
  1.70320862E+00  3.91561349E+00 -2.27566011E-01  1.70320862E+00  3.91561349E+00
 -2.27566011E-01 -1.70320862E+00  3.91561349E+00 -2.27566011E-01 -1.70320862E+00
  3.91561349E+00 -2.27566011E-01 -1.70320862E+00  3.91561349E+00 -2.27566011E-01
 -1.70320862E+00  3.91561349E+00 -2.27566011E-01 -1.70320862E+00
Constraint Structure                       R   N=          21
 -3.13347803E+00 -1.94533287E+00  0.00000000E+00 -5.25105591E-01 -1.50297519E+00
  0.00000000E+00  1.11022302E-16  1.52260033E+00  0.00000000E+00  2.98267452E+00
  2.79296889E-01  2.46519033E-32  4.36234363E+00  1.80622647E+00  0.00000000E+00
  3.24258633E+00 -8.80061895E-01  1.68027791E+00  3.24258633E+00 -8.80061895E-01
 -1.68027791E+00
Num ILSW                                   I              100
ILSW                                       I   N=         100
           0           0           0           0           2           0
           0           0           0           0         402          -1
           0           0           0           0           2           0
           0           0           0           0           1           0
           1           0           0           0           0           0
           0           0      100000           0          -1           0
           0           0           0           0           0           0
           0           0           0           1           0           0
           0           0           1           0           0           0
           0           0           4          41           0           0
           0           0           5           0           0           0
           0           0           0           7           0           0
           0           0           0           0           0           0
           0           0           0           0           0           0
           0           0           0           0           0           0
           0           0           0           0           0           0
           0           0           0           0
Num RLSW                                   I               41
RLSW                                       R   N=          41
  8.00000000E-01  7.20000000E-01  1.00000000E+00  8.10000000E-01  2.00000000E-01
  0.00000000E+00  0.00000000E+00  1.00000000E+00  0.00000000E+00  0.00000000E+00
  0.00000000E+00  0.00000000E+00  1.00000000E+00  0.00000000E+00  0.00000000E+00
  0.00000000E+00  0.00000000E+00  1.00000000E+00  0.00000000E+00  0.00000000E+00
  0.00000000E+00  0.00000000E+00  1.00000000E+00  0.00000000E+00  0.00000000E+00
  0.00000000E+00  0.00000000E+00  1.00000000E+00  0.00000000E+00  0.00000000E+00
  0.00000000E+00  0.00000000E+00  1.00000000E+00  0.00000000E+00  0.00000000E+00
  0.00000000E+00  0.00000000E+00  0.00000000E+00  1.00000000E+00  1.00000000E+00
  0.00000000E+00
MxBond                                     I                4
NBond                                      I   N=           7
           1           2           2           4           1           1
           1
IBond                                      I   N=          28
           2           0           0           0           1           3
           0           0           2           4           0           0
           3           5           6           7           4           0
           0           0           4           0           0           0
           4           0           0           0
RBond                                      R   N=          28
  1.00000000E+00  0.00000000E+00  0.00000000E+00  0.00000000E+00  1.00000000E+00
  1.00000000E+00  0.00000000E+00  0.00000000E+00  1.00000000E+00  1.00000000E+00
  0.00000000E+00  0.00000000E+00  1.00000000E+00  1.00000000E+00  1.00000000E+00
  1.00000000E+00  1.00000000E+00  0.00000000E+00  0.00000000E+00  0.00000000E+00
  1.00000000E+00  0.00000000E+00  0.00000000E+00  0.00000000E+00  1.00000000E+00
  0.00000000E+00  0.00000000E+00  0.00000000E+00
Virial Ratio                               R      2.003622135904641E+00
SCF Energy                                 R     -5.680456949420274E+02
Total Energy                               R     -5.680456949420274E+02
RMS Force                                  R      1.024064756346946E-04
RMS Density                                R      3.411894524961853E-09
External E-field                           R   N=          35
  0.00000000E+00  0.00000000E+00  0.00000000E+00  0.00000000E+00  0.00000000E+00
  0.00000000E+00  0.00000000E+00  0.00000000E+00  0.00000000E+00  0.00000000E+00
  0.00000000E+00  0.00000000E+00  0.00000000E+00  0.00000000E+00  0.00000000E+00
  0.00000000E+00  0.00000000E+00  0.00000000E+00  0.00000000E+00  0.00000000E+00
  0.00000000E+00  0.00000000E+00  0.00000000E+00  0.00000000E+00  0.00000000E+00
  0.00000000E+00  0.00000000E+00  0.00000000E+00  0.00000000E+00  0.00000000E+00
  0.00000000E+00  0.00000000E+00  0.00000000E+00  0.00000000E+00  0.00000000E+00
IOpCl                                      I                0
IROHF                                      I                0
Alpha Orbital Energies                     R   N=         123
 -8.89153819E+01 -1.92397562E+01 -1.44943555E+01 -1.02323129E+01 -7.97561518E+00
 -5.93894363E+00 -5.93598486E+00 -5.93083303E+00 -1.20825749E+00 -8.20243872E-01
 -7.12565063E-01 -6.21379059E-01 -5.10149109E-01 -4.90512950E-01 -4.84722606E-01
 -4.46445207E-01 -4.31085592E-01 -3.72437193E-01 -2.70826423E-01 -2.50180976E-01
 -1.06356478E-01 -3.44283621E-02 -1.13954044E-02  1.13407204E-02  2.07182648E-02
  2.19501985E-02  6.06807422E-02  6.55848673E-02  7.61193652E-02  8.12256823E-02
  8.64057780E-02  8.81424332E-02  1.08488994E-01  1.19612899E-01  1.27725511E-01
  1.31624584E-01  1.51468542E-01  1.51942535E-01  1.69829340E-01  1.80767023E-01
  1.99246620E-01  2.13009671E-01  2.47172746E-01  2.54780349E-01  2.68299655E-01
  2.81151270E-01  2.95948656E-01  3.06614380E-01  3.33292659E-01  3.35808779E-01
  3.59403773E-01  3.86218585E-01  3.93681258E-01  4.12380231E-01  4.16896051E-01
  4.45422425E-01  4.49690773E-01  4.64915272E-01  4.78541294E-01  4.89452314E-01
  5.26392631E-01  5.31272093E-01  5.64163829E-01  6.03448787E-01  6.15921252E-01
  6.26183066E-01  6.30258905E-01  7.11092415E-01  7.17100829E-01  7.29292438E-01
  7.59942768E-01  7.88160082E-01  8.35963826E-01  8.54195130E-01  8.59807517E-01
  8.60570914E-01  8.89385005E-01  9.03858269E-01  9.13585951E-01  9.73707257E-01
  9.77715617E-01  9.78348323E-01  1.00595959E+00  1.01545107E+00  1.03339765E+00
  1.07738391E+00  1.07748650E+00  1.12325528E+00  1.18491151E+00  1.19440562E+00
  1.25077199E+00  1.31127209E+00  1.37509304E+00  1.47135968E+00  1.54147267E+00
  1.59570572E+00  1.62348280E+00  1.63950784E+00  1.74379384E+00  1.77104699E+00
  1.82128655E+00  1.87802251E+00  1.89321748E+00  1.91074863E+00  1.94815354E+00
  2.03104641E+00  2.16413433E+00  2.19456803E+00  2.20466373E+00  2.21258531E+00
  2.25033834E+00  2.25885076E+00  2.27995681E+00  2.47686339E+00  2.55782279E+00
  2.60448603E+00  2.63543891E+00  3.16260228E+00  3.20391230E+00  3.25056416E+00
  3.46507448E+00  3.48433622E+00  3.66242955E+00
Alpha MO coefficients                      R   N=       15129
 -5.38629871E-06 -4.93925956E-05  5.51840930E-04  2.54592536E-04  3.75820665E-06
  1.24109428E-06  0.00000000E+00  2.22045019E-04  6.25103918E-05  0.00000000E+00
  1.96074399E-05 -3.27032047E-05  0.00000000E+00 -2.15027306E-06  0.00000000E+00
  0.00000000E+00  9.40512491E-07  5.40637786E-07  9.62795818E-06  0.00000000E+00
  0.00000000E+00  2.54597939E-05  4.60333912E-06 -4.70812828E-06 -5.98139300E-05
  4.98988194E-06  2.47403662E-04 -1.50047887E-05 -3.76869906E-05  0.00000000E+00
  5.98742212E-04  4.34183999E-04  0.00000000E+00  1.62113231E-04  1.78731842E-04
  0.00000000E+00 -2.52984087E-06  0.00000000E+00  0.00000000E+00  4.83116589E-06
 -7.16967773E-06  1.32160574E-05  0.00000000E+00  0.00000000E+00 -2.74789739E-04
  1.14434372E-04  1.00121151E+00 -4.16646148E-03  7.77492873E-04 -2.78729688E-03
 -9.50705087E-04  4.30624420E-05 -4.89267955E-05  0.00000000E+00  1.16327132E-05
  3.84612295E-05  0.00000000E+00 -1.49226119E-03  9.40660675E-04  0.00000000E+00
 -1.00762439E-04  8.45320043E-05  0.00000000E+00  6.37782962E-05  0.00000000E+00
  0.00000000E+00 -1.05843635E-05 -2.63753074E-05  3.42224174E-04  0.00000000E+00
  0.00000000E+00 -1.92917464E-04  2.96884371E-04 -1.92521957E-05 -1.41361391E-04
  2.37120274E-04 -2.43466244E-04  4.65304108E-05 -3.47613972E-06  0.00000000E+00
 -1.90021051E-03  3.02738306E-04  0.00000000E+00 -1.74989108E-04  1.19854071E-04
  0.00000000E+00 -3.04176952E-05  0.00000000E+00  0.00000000E+00  4.25682483E-05
 -4.22078483E-06 -2.54536062E-04  0.00000000E+00  0.00000000E+00  5.37035027E-04
 -4.33706157E-05  3.46397242E-05  5.49919580E-04 -2.16556850E-05  2.63173056E-05
 -7.68802821E-06  0.00000000E+00 -8.56591252E-05 -5.35764037E-05  0.00000000E+00
  1.15536566E-05  9.39144514E-04  1.39825429E-04  3.74416351E-05 -2.11423466E-06
 -1.47366699E-05 -6.36239240E-05  1.16260861E-04 -2.21488097E-04  1.15536566E-05
  9.39144514E-04  1.39825429E-04  3.74416351E-05 -2.11423466E-06  1.47366699E-05
 -6.36239240E-05  1.16260861E-04  2.21488097E-04  9.97016499E-01  2.76643590E-02
 -4.55304407E-02 -1.30662791E-02  2.16748487E-03  4.45568542E-04  0.00000000E+00
 -2.03375368E-02 -3.86849996E-03  0.00000000E+00 -2.78267837E-03 -5.70718662E-04
  0.00000000E+00 -1.77007458E-04  0.00000000E+00  0.00000000E+00  3.86973951E-04
  1.50078586E-04  2.02010110E-03  0.00000000E+00  0.00000000E+00 -3.77901094E-03
 -1.37919656E-03 -1.02289783E-05 -9.23337840E-04  3.01041150E-02  1.36601877E-02
 -8.00433658E-04  1.65561386E-04  0.00000000E+00 -2.62217386E-02 -6.29204539E-03
  0.00000000E+00 -5.53533676E-04  7.21012468E-04  0.00000000E+00  2.59115091E-04
  0.00000000E+00  0.00000000E+00 -4.79990797E-04  2.49376282E-05 -3.87403323E-03
  0.00000000E+00  0.00000000E+00  7.91338518E-03  9.01026787E-04 -3.08783333E-05
 -3.16089409E-04 -8.99208105E-04  6.05083923E-03  1.32980398E-03 -8.25167259E-06
  2.81566632E-06  0.00000000E+00 -1.60044559E-04 -2.09143226E-04  0.00000000E+00
  1.94914796E-03 -5.01185310E-03  0.00000000E+00  6.30771043E-04  6.99868061E-04
  0.00000000E+00 -5.90185162E-06  0.00000000E+00  0.00000000E+00 -1.26165703E-04
 -1.06287459E-06 -9.59839344E-04  0.00000000E+00  0.00000000E+00 -1.19026596E-03
 -1.26120137E-03  6.69043536E-05  4.28375116E-04 -2.12455146E-03 -1.73399627E-03
 -3.78486351E-07 -7.03017345E-05  0.00000000E+00  2.96939177E-03  1.09858192E-03
  0.00000000E+00  1.84409745E-03  1.03691267E-03  0.00000000E+00  2.58669148E-05
  0.00000000E+00  0.00000000E+00 -1.32758861E-04 -4.47390176E-05  2.16364572E-04
  0.00000000E+00  0.00000000E+00 -9.05616387E-04 -9.18510095E-04 -1.34635837E-04
  3.28101183E-05 -1.67144711E-03  8.83278360E-05 -3.89390509E-05  0.00000000E+00
 -1.81751547E-04 -3.49068460E-04  0.00000000E+00  1.64637912E-04 -1.01167077E-03
  9.71612378E-05 -6.39723943E-05 -5.09243986E-07 -1.67578692E-05  8.56491234E-05
 -1.24466305E-04  3.79311399E-04  1.64637912E-04 -1.01167077E-03  9.71612378E-05
 -6.39723943E-05 -5.09243986E-07  1.67578692E-05  8.56491234E-05 -1.24466305E-04
 -3.79311399E-04  7.16716265E-05  4.92823538E-04  1.40605959E-04  2.61824400E-03
 -5.68262046E-04 -7.93130506E-05  0.00000000E+00 -2.22175842E-03 -3.87936798E-04
  0.00000000E+00  3.80095074E-04 -1.75089436E-04  0.00000000E+00  4.99398086E-04
  0.00000000E+00  0.00000000E+00 -8.17602176E-04 -2.66811704E-04  9.23126230E-04
  0.00000000E+00  0.00000000E+00 -1.83787663E-03 -5.36001993E-04  9.96809267E-01
  2.74649340E-02 -1.71629617E-02 -6.47484145E-03 -2.81922945E-03  1.27806312E-03
  0.00000000E+00 -9.83690159E-04 -6.62921513E-03  0.00000000E+00  1.40622274E-03
 -1.19697430E-03  0.00000000E+00 -7.05270998E-04  0.00000000E+00  0.00000000E+00
  9.71403722E-04  4.62789682E-04  2.30555992E-03  0.00000000E+00  0.00000000E+00
 -1.31043064E-04 -2.00724065E-03 -3.90729692E-05 -6.24582755E-04 -1.43372601E-03
  5.91547840E-03  4.41267692E-03  3.52362463E-05  7.96513369E-05  0.00000000E+00
 -1.76005044E-04 -4.45542741E-04  0.00000000E+00 -3.68320826E-03 -7.60983480E-03
  0.00000000E+00 -4.56935818E-04 -1.16545333E-03  0.00000000E+00 -4.05218033E-04
  0.00000000E+00  0.00000000E+00 -5.84603179E-04  4.72695137E-04 -1.38919268E-03
  0.00000000E+00  0.00000000E+00 -3.13252277E-03  9.90147051E-04 -2.69685989E-05
 -3.41058937E-04 -9.41280936E-04 -6.34310182E-04  3.38246777E-04 -2.11638354E-05
  0.00000000E+00 -3.06370451E-03  1.29265268E-03  0.00000000E+00  2.14586279E-04
  8.13644701E-04  0.00000000E+00  1.49720075E-04  0.00000000E+00  0.00000000E+00
 -2.88212050E-06 -3.24865155E-04 -9.79192620E-04  0.00000000E+00  0.00000000E+00
 -2.17028881E-04  6.96739955E-04 -5.40645098E-05 -5.27111148E-04 -3.32809696E-04
  2.58042297E-05 -1.75990048E-04  0.00000000E+00 -2.94640736E-04 -3.71643437E-04
  0.00000000E+00 -4.70587586E-05  2.02957336E-03  5.65708896E-05  1.92549271E-04
  3.08212077E-05  1.23177555E-04  4.10572407E-04  6.58694168E-04 -5.72779491E-04
 -4.70587586E-05  2.02957336E-03  5.65708896E-05  1.92549271E-04  3.08212077E-05
 -1.23177555E-04  4.10572407E-04  6.58694168E-04  5.72779491E-04  2.18255188E-05
  2.09842488E-04 -3.19000318E-03 -1.50896545E-03 -4.47141780E-05 -8.26218372E-05
  0.00000000E+00 -1.07419012E-03  6.09387719E-04  0.00000000E+00 -3.20829529E-04
 -1.11609905E-05  0.00000000E+00 -1.71968183E-05  0.00000000E+00  0.00000000E+00
  2.83020574E-05 -5.78303439E-05 -1.75501581E-05  0.00000000E+00  0.00000000E+00
 -1.22822308E-04  4.58739576E-04 -3.31320546E-05 -4.42209753E-04  1.81145193E-03
  2.72820602E-03 -4.45756885E-05 -1.23941456E-05  0.00000000E+00 -2.22527430E-03
 -1.38699883E-03  0.00000000E+00 -1.04333153E-05  2.81945485E-04  0.00000000E+00
  1.16376366E-04  0.00000000E+00  0.00000000E+00 -1.00529150E-04 -9.80048314E-05
 -8.07295467E-04  0.00000000E+00  0.00000000E+00  1.29031995E-03  9.43584197E-04
 -5.52568065E-05 -6.80228531E-04 -1.72299188E-03  1.20775853E-02  1.02828232E-02
 -1.89712377E-05  1.52885309E-05  0.00000000E+00  5.16426044E-04 -1.59348900E-04
  0.00000000E+00  8.94229871E-03 -2.78278239E-03  0.00000000E+00  2.45362394E-03
 -7.69141255E-05  0.00000000E+00 -1.57938714E-04  0.00000000E+00  0.00000000E+00
  1.81720075E-04  1.25949716E-04 -1.48588900E-03  0.00000000E+00  0.00000000E+00
  2.07000588E-03 -1.34515791E-03  9.97145894E-01  3.60707500E-02 -6.34589610E-02
 -2.33254426E-02  2.47360400E-04  3.26377046E-05  0.00000000E+00  5.80530058E-03
 -1.10186508E-03  0.00000000E+00  2.53451363E-03 -4.48069159E-04  0.00000000E+00
  6.25416493E-04  0.00000000E+00  0.00000000E+00 -1.01112896E-03  3.86238955E-04
  7.90597275E-04  0.00000000E+00  0.00000000E+00 -1.12537332E-03 -1.79397555E-04
 -7.50654848E-04  1.71639291E-02  1.43144512E-03  7.68428212E-04  1.56415122E-03
  0.00000000E+00 -3.55392394E-03 -4.86787878E-03  0.00000000E+00 -6.82306455E-04
  1.57041230E-02  1.63070484E-03  3.32562104E-04 -8.78262033E-04  1.37538141E-03
 -2.43376098E-03  2.73653411E-03 -4.20285393E-03 -6.82306455E-04  1.57041230E-02
  1.63070484E-03  3.32562104E-04 -8.78262033E-04 -1.37538141E-03 -2.43376098E-03
  2.73653411E-03  4.20285393E-03 -5.93612105E-05 -6.50756454E-04  1.91346004E-03
  6.46748095E-03 -1.96709234E-04 -3.12784048E-04  0.00000000E+00  2.01226950E-03
  2.74829909E-03  0.00000000E+00  5.62261259E-04  6.43533363E-04  0.00000000E+00
  1.11970789E-04  0.00000000E+00  0.00000000E+00  1.60324370E-04 -1.79681333E-04
 -9.78822293E-04  0.00000000E+00  0.00000000E+00 -4.06974449E-04  1.54994353E-03
  3.06386146E-06  1.63448298E-04 -1.11833134E-03 -7.25602843E-03  1.58869225E-04
  5.02505294E-04  0.00000000E+00  4.43618980E-03 -1.98294629E-03  0.00000000E+00
  2.68270033E-03 -1.34337548E-03  0.00000000E+00  2.00799069E-04  0.00000000E+00
  0.00000000E+00  1.04163585E-04 -1.99430876E-04  7.06036371E-04  0.00000000E+00
  0.00000000E+00  1.04145615E-03  2.60711816E-03 -2.73228854E-01  1.03848517E+00
  6.40894823E-02 -6.81734822E-02  1.21033304E-02  5.53692153E-03 -5.23855419E-03
  0.00000000E+00  1.69446474E-03 -1.58433382E-03  0.00000000E+00 -3.13413093E-02
  8.30487852E-03  0.00000000E+00  2.27223716E-03 -1.72999922E-03  0.00000000E+00
 -5.70751192E-04  0.00000000E+00  0.00000000E+00 -1.00786693E-04  4.13723089E-04
  6.43495205E-03  0.00000000E+00  0.00000000E+00 -7.32163823E-03  5.33883283E-03
 -1.27634405E-04 -7.15757072E-04  2.06049205E-04 -1.92069641E-02  6.42943477E-04
 -2.42617411E-05  0.00000000E+00 -3.16968419E-02  2.99441554E-03  0.00000000E+00
  2.71179458E-03 -1.41953154E-04  0.00000000E+00  3.88494725E-04  0.00000000E+00
  0.00000000E+00 -8.27159706E-04  6.19946249E-04 -3.71115784E-03  0.00000000E+00
  0.00000000E+00  9.66124521E-03 -3.64567561E-03  1.92780344E-05  2.15662486E-02
  8.37698020E-04  4.89623663E-04  1.00129313E-04  0.00000000E+00 -4.18852035E-03
 -4.19642923E-03  0.00000000E+00 -4.23874519E-04  1.52603557E-02  6.85541031E-04
  5.34720915E-04 -1.36814791E-04 -1.52278638E-04 -2.78599309E-03  1.49581283E-03