water                                                                   
FOpt      RMP2-FC                                                     Aug-CC-pVTZ         
Number of atoms                            I                3
Info1-9                                    I   N=           9
          20          16           0           0           0         100
           2           2           1
Charge                                     I                0
Multiplicity                               I                1
Number of electrons                        I               10
Number of alpha electrons                  I                5
Number of beta electrons                   I                5
Number of basis functions                  I               92
Number of independent functions            I               92
Number of point charges in /Mol/           I                0
Number of translation vectors              I                0
Atomic numbers                             I   N=           3
           8           1           1
Nuclear charges                            R   N=           3
  8.00000000E+00  1.00000000E+00  1.00000000E+00
Current cartesian coordinates              R   N=           9
  0.00000000E+00  2.23386003E-01  1.23259516E-32  1.43262715E+00 -8.93501932E-01
  9.86076132E-32 -1.43262715E+00 -8.93586090E-01 -2.71170936E-31
Force Field                                I                0
Int Atom Types                             I   N=           3
           0           0           0
MM charges                                 R   N=           3
  0.00000000E+00  0.00000000E+00  0.00000000E+00
Integer atomic weights                     I   N=           3
          16           1           1
Real atomic weights                        R   N=           3
  1.59949146E+01  1.00782504E+00  1.00782504E+00
Atom fragment info                         I   N=           3
           0           0           0
Atom residue num                           I   N=           3
           0           0           0
Nuclear spins                              I   N=           3
           0           1           1
Nuclear ZEff                               R   N=           3
 -5.60000000E+00 -1.00000000E+00 -1.00000000E+00
Nuclear ZNuc                               R   N=           3
  8.00000000E+00  1.00000000E+00  1.00000000E+00
Nuclear QMom                               R   N=           3
  0.00000000E+00  0.00000000E+00  0.00000000E+00
Nuclear GFac                               R   N=           3
  0.00000000E+00  2.79284600E+00  2.79284600E+00
MicOpt                                     I   N=           3
          -1          -1          -1
Number of contracted shells                I               32
Number of primitive shells                 I               49
Pure/Cartesian d shells                    I                0
Pure/Cartesian f shells                    I                0
Highest angular momentum                   I                3
Largest degree of contraction              I                7
Shell types                                I   N=          32
           0           0           0           0           0           1
           1           1           1          -2          -2          -2
          -3          -3           0           0           0           0
           1           1           1          -2          -2           0
           0           0           0           1           1           1
          -2          -2
Number of primitives per shell             I   N=          32
           7           6           1           1           1           3
           1           1           1           1           1           1
           1           1           3           1           1           1
           1           1           1           1           1           3
           1           1           1           1           1           1
           1           1
Shell to atom map                          I   N=          32
           1           1           1           1           1           1
           1           1           1           1           1           1
           1           1           2           2           2           2
           2           2           2           2           2           3
           3           3           3           3           3           3
           3           3
Primitive exponents                        R   N=          49
  1.53300000E+04  2.29900000E+03  5.22400000E+02  1.47300000E+02  4.75500000E+01
  1.67600000E+01  6.20700000E+00  5.22400000E+02  1.47300000E+02  4.75500000E+01
  1.67600000E+01  6.20700000E+00  6.88200000E-01  1.75200000E+00  2.38400000E-01
  7.37600000E-02  3.44600000E+01  7.74900000E+00  2.28000000E+00  7.15600000E-01
  2.14000000E-01  5.97400000E-02  2.31400000E+00  6.45000000E-01  2.14000000E-01
  1.42800000E+00  5.00000000E-01  3.38700000E+01  5.09500000E+00  1.15900000E+00
  3.25800000E-01  1.02700000E-01  2.52600000E-02  1.40700000E+00  3.88000000E-01
  1.02000000E-01  1.05700000E+00  2.47000000E-01  3.38700000E+01  5.09500000E+00
  1.15900000E+00  3.25800000E-01  1.02700000E-01  2.52600000E-02  1.40700000E+00
  3.88000000E-01  1.02000000E-01  1.05700000E+00  2.47000000E-01
Contraction coefficients                   R   N=          49
  5.19808943E-04  4.02025621E-03  2.07128267E-02  8.10105536E-02  2.35962985E-01
  4.42653446E-01  3.57064423E-01 -4.42115008E-05 -1.22591041E-03 -1.05517725E-02
 -6.74452633E-02 -1.71198607E-01  1.07329856E+00  1.00000000E+00  1.00000000E+00
  1.00000000E+00  4.11634896E-02  2.57762836E-01  8.02419274E-01  1.00000000E+00
  1.00000000E+00  1.00000000E+00  1.00000000E+00  1.00000000E+00  1.00000000E+00
  1.00000000E+00  1.00000000E+00  2.54948632E-02  1.90362766E-01  8.52162022E-01
  1.00000000E+00  1.00000000E+00  1.00000000E+00  1.00000000E+00  1.00000000E+00
  1.00000000E+00  1.00000000E+00  1.00000000E+00  2.54948632E-02  1.90362766E-01
  8.52162022E-01  1.00000000E+00  1.00000000E+00  1.00000000E+00  1.00000000E+00
  1.00000000E+00  1.00000000E+00  1.00000000E+00  1.00000000E+00
Coordinates of each shell                  R   N=          96
  0.00000000E+00  2.23386003E-01  2.31111593E-32  0.00000000E+00  2.23386003E-01
  2.31111593E-32  0.00000000E+00  2.23386003E-01  2.31111593E-32  0.00000000E+00
  2.23386003E-01  2.31111593E-32  0.00000000E+00  2.23386003E-01  2.31111593E-32
  0.00000000E+00  2.23386003E-01  2.31111593E-32  0.00000000E+00  2.23386003E-01
  2.31111593E-32  0.00000000E+00  2.23386003E-01  2.31111593E-32  0.00000000E+00
  2.23386003E-01  2.31111593E-32  0.00000000E+00  2.23386003E-01  2.31111593E-32
  0.00000000E+00  2.23386003E-01  2.31111593E-32  0.00000000E+00  2.23386003E-01
  2.31111593E-32  0.00000000E+00  2.23386003E-01  2.31111593E-32  0.00000000E+00
  2.23386003E-01  2.31111593E-32  1.43262715E+00 -8.93501932E-01  9.86076132E-32
  1.43262715E+00 -8.93501932E-01  9.86076132E-32  1.43262715E+00 -8.93501932E-01
  9.86076132E-32  1.43262715E+00 -8.93501932E-01  9.86076132E-32  1.43262715E+00
 -8.93501932E-01  9.86076132E-32  1.43262715E+00 -8.93501932E-01  9.86076132E-32
  1.43262715E+00 -8.93501932E-01  9.86076132E-32  1.43262715E+00 -8.93501932E-01
  9.86076132E-32  1.43262715E+00 -8.93501932E-01  9.86076132E-32 -1.43262715E+00
 -8.93586090E-01 -2.46519033E-31 -1.43262715E+00 -8.93586090E-01 -2.46519033E-31
 -1.43262715E+00 -8.93586090E-01 -2.46519033E-31 -1.43262715E+00 -8.93586090E-01
 -2.46519033E-31 -1.43262715E+00 -8.93586090E-01 -2.46519033E-31 -1.43262715E+00
 -8.93586090E-01 -2.46519033E-31 -1.43262715E+00 -8.93586090E-01 -2.46519033E-31
 -1.43262715E+00 -8.93586090E-01 -2.46519033E-31 -1.43262715E+00 -8.93586090E-01
 -2.46519033E-31
Constraint Structure                       R   N=           9
  1.38777878E-17  2.06969647E-01 -1.54074396E-33  1.46348543E+00 -8.22968947E-01
  0.00000000E+00 -1.46348543E+00 -8.32788228E-01 -3.69778549E-32
Num ILSW                                   I              100
ILSW                                       I   N=         100
           0           0           0           0           2           0
           0           0           0           0           0          -1
           0           0           0           0           2           0
           0           0           0           0           1           0
           1           0           0           0           0           0
           0           0      100000           0          -1           0
           0           0           0           0           0           0
           0           0           0           1           0           0
           0           0           1           0           0           0
           0           0           4          41           0           0
           0           0           0           0           0           0
           0           0           0           3           0           0
           0           0           0           0           0           0
           0           0           0           0           0           0
           0           0           0           0           0           0
           0           0           0           0           0           0
           0           0           0           0
Num RLSW                                   I               41
RLSW                                       R   N=          41
  1.00000000E+00  1.00000000E+00  1.00000000E+00  1.00000000E+00  1.00000000E+00
  0.00000000E+00  0.00000000E+00  1.00000000E+00  0.00000000E+00  0.00000000E+00
  0.00000000E+00  0.00000000E+00  1.00000000E+00  0.00000000E+00  0.00000000E+00
  0.00000000E+00  0.00000000E+00  1.00000000E+00  0.00000000E+00  0.00000000E+00
  0.00000000E+00  0.00000000E+00  1.00000000E+00  0.00000000E+00  0.00000000E+00
  0.00000000E+00  0.00000000E+00  1.00000000E+00  0.00000000E+00  0.00000000E+00
  0.00000000E+00  0.00000000E+00  1.00000000E+00  0.00000000E+00  0.00000000E+00
  0.00000000E+00  0.00000000E+00  0.00000000E+00  1.00000000E+00  1.00000000E+00
  0.00000000E+00
MxBond                                     I                2
NBond                                      I   N=           3
           2           1           1
IBond                                      I   N=           6
           2           3           1           0           1           0
RBond                                      R   N=           6
  1.00000000E+00  1.00000000E+00  1.00000000E+00  0.00000000E+00  1.00000000E+00
  0.00000000E+00
Virial Ratio                               R      2.001539144224682E+00
SCF Energy                                 R     -7.606028886072993E+01
MP2 Energy                                 R     -7.632899231212006E+01
Total Energy                               R     -7.632899231212006E+01
Post-SCF wavefunction norm                 R      1.031356317196913E+00
RMS Force                                  R      5.065710185336927E-05
RMS Density                                R      3.504331725492827E-09
External E-field                           R   N=          35
  0.00000000E+00  0.00000000E+00  0.00000000E+00  0.00000000E+00  0.00000000E+00
  0.00000000E+00  0.00000000E+00  0.00000000E+00  0.00000000E+00  0.00000000E+00
  0.00000000E+00  0.00000000E+00  0.00000000E+00  0.00000000E+00  0.00000000E+00
  0.00000000E+00  0.00000000E+00  0.00000000E+00  0.00000000E+00  0.00000000E+00
  0.00000000E+00  0.00000000E+00  0.00000000E+00  0.00000000E+00  0.00000000E+00
  0.00000000E+00  0.00000000E+00  0.00000000E+00  0.00000000E+00  0.00000000E+00
  0.00000000E+00  0.00000000E+00  0.00000000E+00  0.00000000E+00  0.00000000E+00
IOpCl                                      I                0
IROHF                                      I                0
Alpha Orbital Energies                     R   N=          92
 -2.05680831E+01 -1.35179871E+00 -7.14857708E-01 -5.84946188E-01 -5.10144773E-01
  2.93677154E-02  4.76931042E-02  1.35889016E-01  1.58778935E-01  1.75162697E-01
  1.83080552E-01  2.27129118E-01  2.44922258E-01  2.65389629E-01  3.00015688E-01
  3.10136568E-01  3.65783213E-01  4.37338989E-01  4.66040045E-01  5.99190804E-01
  6.58463032E-01  7.07957213E-01  7.22638614E-01  7.31657833E-01  8.30522199E-01
  8.46324262E-01  8.92181812E-01  9.12482617E-01  9.18256635E-01  9.22362615E-01
  9.30781843E-01  9.61384001E-01  1.02084797E+00  1.04309312E+00  1.08249746E+00
  1.10842025E+00  1.17614810E+00  1.18179718E+00  1.26098646E+00  1.51005852E+00
  1.53508015E+00  1.58259443E+00  1.80525536E+00  1.82024000E+00  1.98390351E+00
  2.11719962E+00  2.26259382E+00  2.31563100E+00  2.32671749E+00  2.41819464E+00
  2.42048646E+00  2.44302074E+00  2.47951035E+00  2.67725926E+00  2.69800699E+00
  2.77067203E+00  2.81539726E+00  2.88382932E+00  3.65210140E+00  3.74087154E+00
  4.01745148E+00  4.08253060E+00  4.16347644E+00  4.24679478E+00  4.28695764E+00
  4.37414558E+00  4.37701657E+00  4.40447387E+00  4.51697417E+00  4.72425606E+00
  4.84208924E+00  5.14741993E+00  5.14757789E+00  5.24919661E+00  5.32197462E+00
  5.52033109E+00  5.66159087E+00  6.17674487E+00  6.51307774E+00  6.70882068E+00
  6.89702823E+00  7.13113252E+00  7.25091987E+00  7.29855715E+00  7.31123596E+00
  7.32814860E+00  7.35421117E+00  7.53013613E+00  7.89592766E+00  7.92128892E+00
  8.79873579E+00  1.57062266E+01
Alpha MO coefficients                      R   N=        8464
  9.76709127E-01 -8.98996917E-03  4.36006262E-02  8.51821769E-04  2.77703146E-04
  3.72281723E-08 -1.87016634E-03  0.00000000E+00  1.46856693E-07  1.58588690E-03
  0.00000000E+00  3.74094500E-07 -2.68643422E-04  0.00000000E+00  6.62910902E-08
 -1.68763240E-04  0.00000000E+00 -6.30757834E-05  0.00000000E+00  0.00000000E+00
  2.41175375E-05 -2.51731605E-08  5.02037063E-04  0.00000000E+00  0.00000000E+00
 -1.95165769E-04 -9.60600597E-08 -1.47338659E-04  0.00000000E+00  0.00000000E+00
 -1.11326931E-05 -8.39508234E-08  0.00000000E+00 -1.49929724E-08 -9.15728289E-06
  0.00000000E+00  0.00000000E+00 -9.13164528E-09 -1.98210341E-05  0.00000000E+00
 -3.33343709E-10 -7.44904893E-05  0.00000000E+00  0.00000000E+00 -5.31288287E-09
  1.67353349E-04  4.99780093E-04  9.65835212E-04 -2.25005979E-04  2.48217538E-05
 -1.59381409E-04  1.01047228E-04  0.00000000E+00 -6.62155956E-04  6.00810380E-04
  0.00000000E+00 -1.08413679E-04  7.72925482E-05  0.00000000E+00  5.96937900E-05
  0.00000000E+00  0.00000000E+00  9.27645761E-06  1.19191893E-04 -2.28424834E-04
  0.00000000E+00  0.00000000E+00  7.36003526E-05 -3.98831712E-04  4.99728509E-04
  9.66607337E-04 -2.24330420E-04  2.48887566E-05  1.59450032E-04  1.01114635E-04
  0.00000000E+00  6.62401605E-04  6.01052694E-04  0.00000000E+00  1.08587288E-04
  7.73984373E-05  0.00000000E+00  5.96320396E-05  0.00000000E+00  0.00000000E+00
  9.30926032E-06 -1.19088139E-04 -2.28441536E-04  0.00000000E+00  0.00000000E+00
  7.35813964E-05  3.98858758E-04 -2.01387101E-01  4.87581581E-01  1.32770573E-01
  2.94335495E-01  3.48416229E-02  4.34122976E-06 -4.43354021E-02  0.00000000E+00
  4.10213590E-06 -6.31408630E-02  0.00000000E+00 -6.33513516E-07 -1.73820898E-02
  0.00000000E+00  1.79249249E-07 -2.81855788E-03  0.00000000E+00 -3.59474609E-03
  0.00000000E+00  0.00000000E+00  9.86861173E-04 -2.97455978E-07 -9.03050996E-03
  0.00000000E+00  0.00000000E+00  1.09087251E-03  2.93257093E-07  2.30357013E-03
  0.00000000E+00  0.00000000E+00 -2.24213033E-03  7.61988047E-07  0.00000000E+00
 -3.35819965E-08  1.53848530E-03  0.00000000E+00  0.00000000E+00  1.27686095E-07
 -2.35518011E-03  0.00000000E+00  1.33997650E-07  6.96963978E-04  0.00000000E+00
  0.00000000E+00  2.29540013E-07  1.43757111E-04  8.81221580E-02  7.42627147E-02
 -1.48149040E-02 -1.37965978E-03 -1.05981597E-02  7.46570781E-03  0.00000000E+00
 -7.85697828E-03  5.50825535E-03  0.00000000E+00  5.10165549E-03 -4.29956477E-03
  0.00000000E+00 -1.16626633E-03  0.00000000E+00  0.00000000E+00  5.67838121E-04
 -2.10542629E-03  4.17780721E-04  0.00000000E+00  0.00000000E+00 -2.19349651E-04
  8.56243740E-04  8.81148927E-02  7.42557411E-02 -1.48125659E-02 -1.37928620E-03
  1.05967736E-02  7.46524126E-03  0.00000000E+00  7.85626101E-03  5.50841841E-03
  0.00000000E+00 -5.10064061E-03 -4.29911917E-03  0.00000000E+00 -1.16601562E-03
  0.00000000E+00  0.00000000E+00  5.67543451E-04  2.10499073E-03  4.17422659E-04
  0.00000000E+00  0.00000000E+00 -2.19314886E-04 -8.55722874E-04  3.23799623E-06
 -9.97450105E-06 -2.37825657E-06 -2.31211060E-05 -3.27704686E-06  2.84140291E-01
 -3.65216842E-06  0.00000000E+00  3.39409864E-01 -2.52988039E-06  0.00000000E+00
  1.57731490E-01  2.68448914E-06  0.00000000E+00  8.33707900E-03  2.12920945E-07
  0.00000000E+00 -2.13641569E-07  0.00000000E+00  0.00000000E+00  5.01489436E-07
 -1.27163346E-02  3.10087933E-07  0.00000000E+00  0.00000000E+00  3.12909433E-07
 -2.32373744E-02  1.38245369E-06  0.00000000E+00  0.00000000E+00 -5.60199065E-07
 -3.98034522E-04  0.00000000E+00 -2.62599743E-03 -2.87681153E-08  0.00000000E+00
  0.00000000E+00  8.12316897E-04  9.23860191E-08  0.00000000E+00 -2.31173029E-03
 -2.32319921E-07  0.00000000E+00  0.00000000E+00 -1.83262101E-03  3.11637018E-07
  1.39820822E-01  2.22391453E-01  3.64481698E-02 -4.73651495E-03 -9.37256244E-03
  1.26683963E-02  0.00000000E+00 -1.93769068E-02  2.81465016E-02  0.00000000E+00
  8.19731276E-03  2.10298910E-04  0.00000000E+00 -3.77805884E-03  0.00000000E+00
  0.00000000E+00 -2.64921197E-04 -6.23447942E-03 -2.80017618E-04  0.00000000E+00
  0.00000000E+00 -2.46347833E-03 -2.68016347E-03 -1.39815141E-01 -2.22374852E-01
 -3.64478788E-02  4.73664305E-03 -9.37095714E-03 -1.26677759E-02  0.00000000E+00
 -1.93736050E-02 -2.81459317E-02  0.00000000E+00  8.19633419E-03 -2.10853989E-04
  0.00000000E+00  3.77767535E-03  0.00000000E+00  0.00000000E+00  2.65572346E-04
 -6.23386027E-03  2.80589602E-04  0.00000000E+00  0.00000000E+00  2.46340466E-03
 -2.68104673E-03 -6.48119735E-02  1.75809377E-01  5.23897578E-02  3.28345622E-01
  8.31005906E-02  1.36267616E-07  3.11896669E-01  0.00000000E+00  1.69038743E-06
  3.82622892E-01  0.00000000E+00  4.41566454E-06  2.13752300E-01  0.00000000E+00
  3.23645442E-07  1.34545489E-02  0.00000000E+00  6.07439665E-03  0.00000000E+00
  0.00000000E+00  3.28118824E-03 -4.59183801E-08  9.05182049E-03  0.00000000E+00
  0.00000000E+00  1.33020637E-02 -5.69125974E-07 -5.91411169E-03  0.00000000E+00
  0.00000000E+00  8.22726772E-03 -1.38772497E-06  0.00000000E+00 -5.77833519E-08
 -2.57081007E-03  0.00000000E+00  0.00000000E+00 -3.04448467E-08  1.20194017E-03
  0.00000000E+00 -1.26174473E-07 -6.44818894E-04  0.00000000E+00  0.00000000E+00
 -2.82214365E-07 -1.53041341E-03 -8.54666434E-02 -1.78129216E-01 -6.45950718E-02
 -1.85445780E-03  9.60400590E-03  1.40343027E-03  0.00000000E+00  3.25528016E-02
 -1.44392226E-03  0.00000000E+00  4.70482449E-03  8.36175211E-03  0.00000000E+00
  1.78938465E-03  0.00000000E+00  0.00000000E+00 -3.34326715E-03  1.92955319E-03
  1.08773587E-03  0.00000000E+00  0.00000000E+00 -2.70053107E-03 -1.99437756E-03
 -8.54721517E-02 -1.78132802E-01 -6.45993303E-02 -1.85420605E-03 -9.60359186E-03
  1.40258175E-03  0.00000000E+00 -3.25525816E-02 -1.44687985E-03  0.00000000E+00
 -4.70553163E-03  8.36067622E-03  0.00000000E+00  1.78936350E-03  0.00000000E+00
  0.00000000E+00 -3.34287586E-03 -1.92976520E-03  1.08838058E-03  0.00000000E+00
  0.00000000E+00 -2.70052360E-03  1.99315061E-03  0.00000000E+00  0.00000000E+00
  0.00000000E+00  0.00000000E+00  0.00000000E+00  0.00000000E+00  0.00000000E+00
  3.54132706E-01  0.00000000E+00  0.00000000E+00  4.50204101E-01  0.00000000E+00
  0.00000000E+00  3.25844324E-01  0.00000000E+00  0.00000000E+00  3.33187934E-02
  0.00000000E+00  3.00254233E-07 -5.77349331E-03  0.00000000E+00  0.00000000E+00
  0.00000000E+00  1.66284938E-07 -1.42507958E-02  0.00000000E+00  0.00000000E+00
  0.00000000E+00 -4.36476481E-07 -5.41211503E-03  0.00000000E+00  0.00000000E+00
 -3.62486899E-03  0.00000000E+00  0.00000000E+00  1.08927741E-03  3.93647529E-10
  0.00000000E+00  0.00000000E+00 -1.54175442E-03  0.00000000E+00  0.00000000E+00
  1.17431604E-04  3.18843068E-07  0.00000000E+00  0.00000000E+00  0.00000000E+00
  0.00000000E+00  0.00000000E+00  0.00000000E+00  0.00000000E+00  0.00000000E+00
  1.06095924E-02  0.00000000E+00  0.00000000E+00  2.99304031E-02  0.00000000E+00
  0.00000000E+00  1.84371619E-02  0.00000000E+00 -3.78494538E-03  2.90865296E-03
  0.00000000E+00  0.00000000E+00  0.00000000E+00 -6.07520520E-03  4.28234538E-03
  0.00000000E+00  0.00000000E+00  0.00000000E+00  0.00000000E+00  0.00000000E+00
  0.00000000E+00  0.00000000E+00  0.00000000E+00  1.06088921E-02  0.00000000E+00
  0.00000000E+00  2.99283869E-02  0.00000000E+00  0.00000000E+00  1.84361633E-02
  0.00000000E+00  3.78463679E-03  2.90863248E-03  0.00000000E+00  0.00000000E+00
  0.00000000E+00  6.07464712E-03  4.28218464E-03  0.00000000E+00  0.00000000E+00
 -2.28791873E-02  5.66531876E-02  1.25066775E-02  8.01545122E-01  2.38555345E+00
 -1.58441485E-06 -2.90543446E-02  0.00000000E+00  1.05688846E-06 -7.23009933E-02
  0.00000000E+00  8.35498856E-06 -3.49354357E-01  0.00000000E+00 -7.98502985E-06
 -2.22069766E-01  0.00000000E+00  8.47589436E-04  0.00000000E+00  0.00000000E+00
 -4.71207275E-04 -1.56354916E-07 -2.33631389E-02  0.00000000E+00  0.00000000E+00
  5.70289002E-03 -3.34100734E-08 -4.72808645E-02  0.00000000E+00  0.00000000E+00
  2.89002431E-02  1.66704447E-06  0.00000000E+00 -5.82875540E-08  6.48512574E-04
  0.00000000E+00  0.00000000E+00  2.53668983E-08 -1.36159835E-03  0.00000000E+00
  2.21805576E-07  6.04468664E-03  0.00000000E+00  0.00000000E+00  1.00566192E-06
 -1.04874881E-02 -1.80945591E-03 -2.42810629E-01 -9.52230066E-01 -8.56842013E-01
 -2.03523440E-03  3.50028853E-04  0.00000000E+00  7.92448110E-02 -6.04164834E-02
  0.00000000E+00  2.18594384E-01 -1.98218349E-01  0.00000000E+00  2.56881914E-03
  0.00000000E+00  0.00000000E+00 -2.38403323E-04  4.86345099E-03  1.89000627E-02
  0.00000000E+00  0.00000000E+00 -7.41262350E-03  2.74543392E-02 -1.81020054E-03
 -2.42794206E-01 -9.52207965E-01 -8.56912122E-01  2.03554109E-03  3.50632155E-04
  0.00000000E+00 -7.92397724E-02 -6.04158690E-02  0.00000000E+00 -2.18585036E-01
 -1.98224955E-01  0.00000000E+00  2.56856150E-03  0.00000000E+00  0.00000000E+00
 -2.38101051E-04 -4.86317648E-03  1.89005888E-02  0.00000000E+00  0.00000000E+00
 -7.41088434E-03 -2.74555311E-02  1.46331099E-07 -1.98013126E-06 -6.51458111E-07
 -3.25788488E-05 -8.02742604E-05 -2.90635028E-02 -8.67356261E-07  0.00000000E+00
 -7.41136947E-02 -2.37097118E-07  0.00000000E+00 -5.35284865E-01 -5.07599853E-06
  0.00000000E+00 -1.13224772E+00 -2.64887215E-05  0.00000000E+00  4.58475757E-08
  0.00000000E+00  0.00000000E+00 -3.11154899E-08 -4.20897327E-05  4.36665499E-07
  0.00000000E+00  0.00000000E+00 -1.41127127E-06  3.00656836E-02 -1.03789548E-07
  0.00000000E+00  0.00000000E+00 -5.50287694E-06  1.27388830E-01  0.00000000E+00
  4.34554909E-04 -1.94689052E-08  0.00000000E+00  0.00000000E+00  8.00480304E-04
  9.55381602E-08  0.00000000E+00  9.93365729E-03  3.36984348E-07  0.00000000E+00
  0.00000000E+00  1.68711392E-03 -1.84461400E-07 -6.36613958E-03  2.56244423E-01
  1.37235632E+00  3.41991374E+00 -5.50876532E-04 -1.25419284E-03  0.00000000E+00
 -6.60834048E-02  7.03891179E-02  0.00000000E+00 -2.79021669E-01  3.23752988E-01
  0.00000000E+00 -3.06996378E-03  0.00000000E+00  0.00000000E+00  1.83365247E-03
 -4.53692925E-03 -1.02113496E-02  0.00000000E+00  0.00000000E+00 -1.15009615E-02
 -3.26793635E-02  6.36604001E-03 -2.56223655E-01 -1.37228979E+00 -3.41987897E+00
 -5.50465538E-04  1.25431421E-03  0.00000000E+00 -6.60781592E-02 -7.03884201E-02
  0.00000000E+00 -2.79006562E-01 -3.23754589E-01  0.00000000E+00  3.06989517E-03
  0.00000000E+00  0.00000000E+00 -1.83329967E-03 -4.53692222E-03  1.02117272E-02
  0.00000000E+00  0.00000000E+00  1.15026042E-02 -3.26787201E-02  1.43855079E-02
 -5.82245556E-02 -1.89027719E-02  1.57679899E+00  6.72371755E+00  4.49439318E-07
  9.04442529E-02  0.00000000E+00  7.14354425E-06  3.55604326E-02  0.00000000E+00
  2.07829832E-05 -4.21881165E-01  0.00000000E+00  4.66431588E-05 -2.05738197E+00
  0.00000000E+00 -5.70569285E-04  0.00000000E+00  0.00000000E+00  5.30333823E-04
 -1.88076138E-07 -1.24428073E-02  0.00000000E+00  0.00000000E+00  1.66321274E-02
  7.61386422E-07 -9.50577229E-02  0.00000000E+00  0.00000000E+00 -4.49175152E-02
 -6.82656114E-06  0.00000000E+00 -4.72652755E-08  7.67191446E-04  0.00000000E+00
  0.00000000E+00  2.36775067E-07 -3.07748790E-03  0.00000000E+00  2.74281210E-07
 -6.53197055E-04  0.00000000E+00  0.00000000E+00 -1.53717868E-07  6.10616864E-03
  1.02061255E-03 -2.45053563E-01 -3.22680934E+00 -7.34490979E-01  5.56584129E-04
 -1.04998200E-04  0.00000000E+00  2.10244200E-01 -1.35067492E-01  0.00000000E+00
  7.72114657E-01 -4.69218701E-01  0.00000000E+00  8.10183740E-03  0.00000000E+00
  0.00000000E+00 -2.72025926E-03  1.04419130E-02  4.29576997E-02  0.00000000E+00
  0.00000000E+00 -4.29865633E-02  8.57829973E-02  1.02288507E-03 -2.45003612E-01
 -3.22670790E+00 -7.34501055E-01 -5.55746058E-04 -1.04703312E-04  0.00000000E+00
 -2.10228602E-01 -1.35068574E-01  0.00000000E+00 -7.72110881E-01 -4.69271634E-01
  0.00000000E+00  8.10101099E-03  0.00000000E+00  0.00000000E+00 -2.71925109E-03
 -1.04409166E-02  4.29607472E-02  0.00000000E+00  0.00000000E+00 -4.29804109E-02
 -8.57891036E-02  0.00000000E+00  0.00000000E+00  0.00000000E+00  0.00000000E+00
  0.00000000E+00  0.00000000E+00  0.00000000E+00 -8.76087663E-02  0.00000000E+00
  0.00000000E+00 -8.04873388E-02  0.00000000E+00  0.00000000E+00  4.17273009E-02
  0.00000000E+00  0.00000000E+00  1.82313843E+00  0.00000000E+00 -3.52755443E-08
 -1.90658095E-03  0.00000000E+00  0.00000000E+00  0.00000000E+00 -7.85555981E-07
  2.82911009E-02  0.00000000E+00  0.00000000E+00  0.00000000E+00  1.00370986E-05
 -2.05116396E-01  0.00000000E+00  0.00000000E+00  4.61263683E-03  0.00000000E+00
  0.00000000E+00 -6.53846086E-04  1.42384223E-07  0.00000000E+00  0.00000000E+00
 -1.38012172E-02  0.00000000E+00  0.00000000E+00  3.32263553E-04 -5.67384945E-07
  0.00000000E+00  0.00000000E+00  0.00000000E+00  0.00000000E+00  0.00000000E+00
  0.00000000E+00  0.00000000E+00  0.00000000E+00  4.76980647E-04  0.00000000E+00
  0.00000000E+00 -3.94261367E-02  0.00000000E+00  0.00000000E+00 -5.64870528E-01
  0.00000000E+00 -2.02726711E-03  2.43845864E-03  0.00000000E+00  0.00000000E+00
  0.00000000E+00  6.86075357E-02 -4.32090677E-02  0.00000000E+00  0.00000000E+00
  0.00000000E+00  0.00000000E+00  0.00000000E+00  0.00000000E+00  0.00000000E+00
  0.00000000E+00  4.76759030E-04  0.00000000E+00  0.00000000E+00 -3.94187221E-02
  0.00000000E+00  0.00000000E+00 -5.64825471E-01  0.00000000E+00  2.02695026E-03
  2.43860622E-03  0.00000000E+00  0.00000000E+00  0.00000000E+00 -6.86007476E-02
 -4.32097190E-02  0.00000000E+00  0.00000000E+00  4.98366046E-02 -1.37350810E-01
 -5.61637449E-02  1.64027199E+00  4.00855401E+00  1.03871473E-05  1.80014420E-02
  0.00000000E+00  1.37474555E-05 -5.96407156E-02  0.00000000E+00 -7.38539225E-05
 -5.64523010E-01  0.00000000E+00 -2.46552112E-04  9.22966656E-01  0.00000000E+00
  3.36028778E-03  0.00000000E+00  0.00000000E+00  6.26328588E-04 -5.70123134E-07
 -7.14432195E-02  0.00000000E+00  0.00000000E+00  2.15278636E-02  6.37109027E-06
 -2.45408500E-02  0.00000000E+00  0.00000000E+00  1.54870948E-01  3.57668239E-05
  0.00000000E+00 -2.36183395E-07  2.29279098E-03  0.00000000E+00  0.00000000E+00
  3.80611985E-07 -3.48488241E-03  0.00000000E+00  2.56172620E-06  7.80406245E-03
  0.00000000E+00  0.00000000E+00  3.26875208E-06 -3.13379733E-02  3.03650995E-02
 -4.97458233E-01 -1.19191900E+00 -6.96947920E-01  1.23617322E-02 -7.79583924E-03
  0.00000000E+00  1.87917383E-01 -1.84687813E-01  0.00000000E+00  7.84017384E-01
 -8.97751887E-01  0.00000000E+00  4.78843831E-03  0.00000000E+00  0.00000000E+00
  2.24518276E-04  1.41966034E-02  6.80311296E-02  0.00000000E+00  0.00000000E+00
 -1.11639363E-02  1.08911185E-01  3.03699895E-02 -4.97525597E-01 -1.19244974E+00
 -6.97407647E-01 -1.23622160E-02 -7.79647022E-03  0.00000000E+00 -1.87936671E-01
 -1.84719028E-01  0.00000000E+00 -7.84143420E-01 -8.97929314E-01  0.00000000E+00
  4.78926285E-03  0.00000000E+00  0.00000000E+00  2.24940481E-04 -1.41980004E-02
  6.80358682E-02  0.00000000E+00  0.00000000E+00 -1.11509864E-02 -1.08924696E-01
 -4.19970293E-06  6.39481453E-06  2.72364923E-06 -1.89020994E-04 -4.33685663E-04
  9.41544498E-02  1.83609399E-06  0.00000000E+00  8.90829488E-04  1.01555457E-05
  0.00000000E+00 -1.61546091E+00  1.32975853E-05  0.00000000E+00 -3.62292173E+00
 -1.53726580E-04  0.00000000E+00 -9.69669141E-08  0.00000000E+00  0.00000000E+00
  2.04466275E-07 -4.08124588E-03  5.16767739E-06  0.00000000E+00  0.00000000E+00
 -5.36294680E-06  8.91445366E-02 -4.45575141E-07  0.00000000E+00  0.00000000E+00
 -3.12487853E-05  4.63844949E-01  0.00000000E+00 -3.37571073E-04 -2.76937400E-07
  0.00000000E+00  0.00000000E+00  3.00528167E-03  4.87798126E-07  0.00000000E+00
  3.19068297E-02  9.51437594E-07  0.00000000E+00  0.00000000E+00  6.69280537E-03
  1.46284180E-06 -3.18703247E-04  9.08678434E-01  4.87891624E+00  3.34804180E+00
 -1.09751671E-02  4.85233641E-03  0.00000000E+00 -2.46753925E-01  2.57931934E-01
  0.00000000E+00 -1.11731290E+00  1.20932723E+00  0.00000000E+00 -1.18015581E-02
  0.00000000E+00  0.00000000E+00  4.81370014E-03 -1.69567410E-02 -1.62855492E-02
  0.00000000E+00  0.00000000E+00 -4.69275338E-02 -9.54050697E-02  3.18129723E-04
 -9.08553136E-01 -4.87859956E+00 -3.34792157E+00 -1.09716938E-02 -4.85056364E-03
  0.00000000E+00 -2.46721122E-01 -2.57909309E-01  0.00000000E+00 -1.11718073E+00
 -1.20923041E+00  0.00000000E+00  1.18008095E-02  0.00000000E+00  0.00000000E+00
 -4.81265901E-03 -1.69547990E-02  1.62794567E-02  0.00000000E+00  0.00000000E+00
  4.69313708E-02 -9.53894850E-02 -1.12799134E-06 -1.08871834E-06  3.71432544E-07
 -8.03669204E-05 -3.63974243E-04  6.73604480E-02  2.73602597E-06  0.00000000E+00