
Running Job 1 of 1 methanol.in
qchem methanol.in_5375.0 /scratch/gaussian/6498ivanovm/809660.hn1.marqnet.mu.edu/local/qchem5375/ 1
/exports/apps/qchem/4_3/parallel/bin/mpi/mpirun_qchem -machinefile /var/spool/torque/aux//809660.hn1.marqnet.mu.edu -np 1 /exports/apps/qchem/4_3/parallel/exe/qcprog.exe methanol.in_5375.0 /scratch/gaussian/6498ivanovm/809660.hn1.marqnet.mu.edu/local/qchem5375/

Process 0 of 1 is on hpc-cn11.marqnet.mu.edu - thread support 0
initial socket setup ...start
initial socket setup ...done 
now start server 0 ... 
hpc-cn11.marqnet.mu.edu 10.12.12
                  Welcome to Q-Chem
     A Quantum Leap Into The Future Of Chemistry


 Q-Chem 4.3, Q-Chem, Inc., Pleasanton, CA (2015)

 Y. Shao,  Z. Gan,  E. Epifanovsky,  A. T. B. Gilbert,  M. Wormit,  
 J. Kussmann,  A. W. Lange,  A. Behn,  J. Deng,  X. Feng,  D. Ghosh,  
 M. Goldey,  P. R. Horn,  L. D. Jacobson,  I. Kaliman,  R. Z. Khaliullin,  
 T. Kus,  A. Landau,  J. Liu,  E. I. Proynov,  Y. M. Rhee,  R. M. Richard,  
 M. A. Rohrdanz,  R. P. Steele,  E. J. Sundstrom,  H. L. Woodcock III,  
 P. M. Zimmerman,  D. Zuev,  B. Albrecht,  E. Alguire,  B. Austin,  
 S. A. Baeppler,  G. J. O. Beran,  Y. A. Bernard,  E. Berquist,  
 K. Brandhorst,  K. B. Bravaya,  S. T. Brown,  D. Casanova,  C.-M. Chang,  
 Y. Chen,  S. H. Chien,  K. D. Closser,  D. L. Crittenden,  M. Diedenhofen,  
 R. A. DiStasio Jr.,  H. Do,  A. D. Dutoi,  R. G. Edgar,  P.-T. Fang,  
 S. Fatehi,  Q. Feng,  L. Fusti-Molnar,  A. Ghysels,  
 A. Golubeva-Zadorozhnaya,  J. Gomes,  A. Gunina,  M. W. D. Hanson-Heine,  
 P. H. P. Harbach,  A. W. Hauser,  E. G. Hohenstein,  Z. C. Holden,  K. Hui,  
 T.-C. Jagau,  H. Ji,  B. Kaduk,  K. Khistyaev,  Jaehoon Kim,  Jihan Kim,  
 R. A. King,  P. Klunzinger,  D. Kosenkov,  T. Kowalczyk,  C. M. Krauter,  
 K. U. Lao,  A. Laurent,  K. V. Lawler,  S. Lehtola,  S. V. Levchenko,  
 C. Y. Lin,  Y.-S. Lin,  F. Liu,  E. Livshits,  R. C. Lochan,  A. Luenser,  
 P. Manohar,  S. F. Manzer,  S.-P. Mao,  N. Mardirossian,  A. V. Marenich,  
 L. A. Martinez-Martinez,  S. A. Maurer,  N. J. Mayhall,  K. Nanda,  
 C. M. Oana,  R. Olivares-Amaya,  D. P. O'Neill,  J. A. Parkhill,  
 T. M. Perrine,  R. Peverati,  P. A. Pieniazek,  F. Plasser,  A. Prociuk,  
 D. R. Rehn,  E. Rosta,  N. J. Russ,  N. Sergueev,  S. M. Sharada,  
 S. Sharma,  D. W. Small,  A. Sodt,  T. Stauch,  T. Stein,  D. Stuck,  
 Y.-C. Su,  A. J. W. Thom,  T. Tsuchimochi,  L. Vogt,  O. Vydrov,  T. Wang,  
 M. A. Watson,  J. Wenzel,  A. White,  C. F. Williams,  V. Vanovschi,  
 S. Yeganeh,  S. R. Yost,  Z.-Q. You,  I. Y. Zhang,  X. Zhang,  Y. Zhao,  
 B. R. Brooks,  G. K. L. Chan,  D. M. Chipman,  C. J. Cramer,  
 W. A. Goddard III,  M. S. Gordon,  W. J. Hehre,  A. Klamt,  
 H. F. Schaefer III,  M. W. Schmidt,  C. D. Sherrill,  D. G. Truhlar,  
 A. Warshel,  X. Xu,  A. Aspuru-Guzik,  R. Baer,  A. T. Bell,  N. A. Besley,  
 J.-D. Chai,  A. Dreuw,  B. D. Dunietz,  T. R. Furlani,  S. R. Gwaltney,  
 C.-P. Hsu,  Y. Jung,  J. Kong,  D. S. Lambrecht,  W. Liang,  C. Ochsenfeld,  
 V. A. Rassolov,  L. V. Slipchenko,  J. E. Subotnik,  T. Van Voorhis,  
 J. M. Herbert,  A. I. Krylov,  P. M. W. Gill,  M. Head-Gordon

 Contributors to earlier versions of Q-Chem not listed above: 
 R. D. Adamson,  J. Baker,  E. F. C. Byrd,  A. K. Chakraborty,  C.-L. Cheng,  
 H. Dachsel,  R. J. Doerksen,  G. Hawkins,  A. Heyden,  S. Hirata,  
 G. Kedziora,  F. J. Keil,  C. Kelley,  P. P. Korambath,  W. Kurlancheek,  
 A. M. Lee,  M. S. Lee,  D. Liotard,  I. Lotan,  P. E. Maslen,  N. Nair,  
 D. Neuhauser,  R. Olson,  B. Peters,  J. Ritchie,  N. E. Schultz,  
 N. Shenvi,  A. C. Simmonett,  K. S. Thanthiriwatte,  Q. Wu,  W. Zhang

 Please cite Q-Chem as follows:
 Y. Shao et al., Mol. Phys. 113, 184-215 (2014)
 DOI: 10.1080/00268976.2014.952696

 Q-Chem 4.3.0 for Intel X86 Linux

 Parts of Q-Chem use Armadillo 4.550.3 (Singapore Sling Deluxe).
 http://arma.sourceforge.net/

 Q-Chem begins on Fri Sep 11 21:51:30 2015  

Host: 
0

     Scratch files written to /scratch/gaussian/6498ivanovm/809660.hn1.marqnet.mu.edu/local/qchem5375//
 Apr2915 4927_ 18097  18092 4994   
 Parallel job on  1  processors
Processing $rem in /exports/apps/qchem/4_3/parallel/config/preferences.
 MEM_TOTAL  2500 

Checking the input file for inconsistencies...	...done.

--------------------------------------------------------------
User input:
--------------------------------------------------------------
$molecule
0 1
O         -0.04655       -0.75940        0.00000
H          0.86551       -1.07136        0.00000
C         -0.04655        0.66753        0.00000
H         -1.09737        0.98056        0.00000
H          0.44175        1.08039        0.89819
H          0.44175        1.08039       -0.89819
$end

$rem
jobtype     sp
METHOD      b3lyp
BASIS       aug-cc-pvdz
thresh      14
scf_convergence 11
xc_grid     99000590
IGDESP      +194
MULTIPOLE_ORDER  10
MM_CHARGES  TRUE
SYM_IGNORE  TRUE
$end


--------------------------------------------------------------
 ----------------------------------------------------------------
             Standard Nuclear Orientation (Angstroms)
    I     Atom           X                Y                Z
 ----------------------------------------------------------------
    1      O      -0.0465500000    -0.7594000000     0.0000000000
    2      H       0.8655100000    -1.0713600000     0.0000000000
    3      C      -0.0465500000     0.6675300000     0.0000000000
    4      H      -1.0973700000     0.9805600000     0.0000000000
    5      H       0.4417500000     1.0803900000     0.8981900000
    6      H       0.4417500000     1.0803900000    -0.8981900000
 ----------------------------------------------------------------
 Nuclear Repulsion Energy =    40.0907126007 hartrees
 There are        9 alpha and        9 beta electrons
 Requested basis set is aug-cc-pVDZ
 There are 38 shells and 82 basis functions

Total QAlloc Memory Limit   2500 MB
Mega-Array Size        61 MB
MEM_STATIC part        62 MB

                       Distance Matrix (Angstroms)
             O (  1)   H (  2)   C (  3)   H (  4)   H (  5)
   H (  2)  0.963936
   C (  3)  1.426930  1.963566
   H (  4)  2.032654  2.839590  1.096454
   H (  5)  2.104759  2.369883  1.102559  1.784825
   H (  6)  2.104759  2.369883  1.102559  1.784825  1.796380
 
 A cutoff of  1.0D-14 yielded    741 shell pairs
 There are      3485 function pairs (      3843 Cartesian)
 
 -------------------------------------------------------
 OpenMP Integral Computing Module                       
 Release: version 1.0, May 2013, Q-Chem Inc. Pittsburgh 
 -------------------------------------------------------
 Integral Job Info:
 Integral job number is                      11
 Integral operator is                         1
 short-range coefficients               -999999
 long-range coefficients                -999999
 Omega coefficients                           0
 if combine SR and LR in K              -999999
 Integral screening is                        0
 Integral computing path is                   2
 max size of driver memory is            800000
 size of driver memory is                593474
 size of scratch memory is              4706208
 max col of scratch BK array               1296
 max len of scratch array in speh3          155
 max len of scratch index in speh4           18
 max int batch size is                      520
 min int batch size is                       52
 fixed nKL is                                52
 max L of basis functions is                  2
 order of int derivative is                   0
 number of shells is                         38
 number of basis is                          86
 number of cartesian basis is                86
 number of contracted shell pairs           741
 number of primitive shell pairs           2903
 maxK2 (contraction) of shell pair           64
 max number of K2 of shell pair               1
 max number of CS2 of shell pair            144
 max number of PS2 of shell pair            408
 mem total for path MDJ                   16216
 -------------------------------------------------------
 Smallest overlap matrix eigenvalue = 6.48E-04

  Scale SEOQF with 1.000000e-01/1.000000e-01/1.000000e-01

 Standard Electronic Orientation quadrupole field applied
 Nucleus-field energy     =     0.0000000007 hartrees
 Guess from superposition of atomic densities
 Warning:  Energy on first SCF cycle will be non-variational
 A restricted hybrid HF-DFT SCF calculation will be
 performed using Pulay DIIS extrapolation
 Exchange:     0.2000 Hartree-Fock + 0.0800 Slater + 0.7200 Becke88
 Correlation:  0.8100 LYP + 0.1900 VWN1RPA
 Using Euler-Maclaurin-Lebedev (99,590) quadrature formula
 SCF converges when DIIS error is below 1.0E-11
 using 8 threads for integral computing 
 -------------------------------------------------------
 OpenMP BLAS3 based DFT computing Module                
 Release: version 1.0, May 2013, Q-Chem Inc. Pittsburgh 
 -------------------------------------------------------
 ---------------------------------------
  Cycle       Energy         DIIS Error
 ---------------------------------------
    1    -115.8424367522      5.65E-02
    2    -115.6763651034      9.43E-03
    3    -115.6075401381      1.41E-02
    4    -115.7408339322      1.47E-03
    5    -115.7422349390      4.69E-04
    6    -115.7423977157      6.43E-05
    7    -115.7424006797      5.41E-06
    8    -115.7424007041      1.24E-06
    9    -115.7424007056      1.56E-07
   10    -115.7424007056      3.13E-08
   11    -115.7424007056      2.71E-09
   12    -115.7424007056      5.84E-10
   13    -115.7424007056      1.27E-10
   14    -115.7424007056      1.30E-11
   15    -115.7424007056      2.68E-12 Convergence criterion met
 ---------------------------------------
 SCF time:  CPU 49.29 s  wall 6.35 s
 SCF   energy in the final basis set = -115.7424007056
 Total energy in the final basis set = -115.7424007056
 Analysis of SCF Wavefunction
 
 --------------------------------------------------------------
 
                    Orbital Energies (a.u.)
 --------------------------------------------------------------
 
 Alpha MOs
 -- Occupied --
-19.154 -10.233  -1.026  -0.688  -0.513  -0.443  -0.431  -0.345
 -0.284
 -- Virtual --
 -0.015   0.006   0.024   0.030   0.064   0.084   0.103   0.108
  0.127   0.145   0.154   0.161   0.165   0.194   0.223   0.271
  0.284   0.309   0.324   0.329   0.336   0.358   0.402   0.417
  0.451   0.473   0.481   0.494   0.520   0.547   0.559   0.573
  0.603   0.609   0.727   0.767   0.810   0.820   0.895   0.980
  1.022   1.023   1.134   1.197   1.263   1.377   1.471   1.484
  1.490   1.542   1.612   1.646   1.816   1.828   1.829   1.904
  1.933   1.966   2.034   2.099   2.185   2.326   2.381   2.456
  2.547   2.549   2.695   2.816   3.349   3.362   3.397   3.489
  3.858
 --------------------------------------------------------------
 
          Ground-State Mulliken Net Atomic Charges

     Atom                 Charge (a.u.)
  ----------------------------------------
      1 O                    -0.380854
      2 H                     0.069436
      3 C                     1.223649
      4 H                    -0.347884
      5 H                    -0.282174
      6 H                    -0.282174
  ----------------------------------------
  Sum of atomic charges =     0.000000

The Stewart charges should reproduce the multipoles up to L =  1
with  5 L =  2 moments fitted by least-squares
The Stewart charges reproduce the multipole moments up to L =  1

         Stewart Net Atomic Charges

     Atom                 Charge (a.u.)
  ----------------------------------------
      1 O                    -0.869003
      2 H                     0.363973
      3 C                     1.562154
      4 H                    -0.301905
      5 H                    -0.377609
      6 H                    -0.377609
  ----------------------------------------
  Sum of atomic charges =     0.000000

   The traceless molecular multipole moments
 -----------------------------------------------------------------
                       Multipole Moments
 -----------------------------------------------------------------
    Charge (ESU x 10^10)
                           0.0000
    Dipole Moment (Debye)
      z                    0.0000    x                1.3470
      y                    0.9644    Total            1.6567
    Quadrupole Moments (Debye-Ang)
      zz                  -1.1936
      xz                   0.0000    yz               0.0000
      xx-yy                1.4364    xy               3.6661
    Octopole Moments (Debye-Ang^2)
      zzz                  0.0000
      xzz                 -0.3339    yzz              3.3238
      xxz-yyz              0.0000    xyz              0.0000
      xxx-xyy             -4.6910    xxy-yyy         -1.9514
    Hexadecapole Moments (Debye-Ang^3)
      zzzz                 4.1426
      xzzz                 0.0000    yzzz             0.0000
      xxzz-yyzz            0.9003    xyzz            -9.3632
      xxxz-xyyz            0.0000    xxyz-yyyz        0.0000
      xxxx-xxyy+yyyy      -5.4249    xxxy-xyyy       -1.0944
    5th-Order Moments (Debye-Ang^4)
      R(5,0)         0.691335E-10
      R(5,1)c       -0.977383E+00    R(5,1)s     -0.562072E+01
      R(5,2)c        0.545791E-10    R(5,2)s     -0.919252E-10
      R(5,3)c       -0.299831E+01    R(5,3)s     -0.132412E+01
      R(5,4)c       -0.142462E-11    R(5,4)s      0.987056E-11
      R(5,5)c        0.432762E+01    R(5,5)s      0.674893E+01
    6th-Order Moments (Debye-Ang^5)
      R(6,0)        -0.146192E+02
      R(6,1)c        0.649559E-10    R(6,1)s     -0.139862E-09
      R(6,2)c       -0.386144E+01    R(6,2)s      0.150785E+02
      R(6,3)c        0.844817E-10    R(6,3)s      0.827534E-10
      R(6,4)c        0.429222E+01    R(6,4)s      0.120772E+02
      R(6,5)c        0.105572E-09    R(6,5)s      0.163662E-09
      R(6,6)c       -0.310646E+01    R(6,6)s     -0.115244E+02
    7th-Order Moments (Debye-Ang^6)
      R(7,0)         0.377868E-11
      R(7,1)c       -0.466472E+01    R(7,1)s     -0.110577E+02
      R(7,2)c        0.876697E-10    R(7,2)s      0.262469E-09
      R(7,3)c       -0.109216E+02    R(7,3)s      0.255858E+01
      R(7,4)c        0.153550E-09    R(7,4)s      0.220336E-09
      R(7,5)c        0.692379E+01    R(7,5)s     -0.261115E+02
      R(7,6)c        0.140606E-09    R(7,6)s     -0.264789E-09
      R(7,7)c        0.182540E+02    R(7,7)s     -0.114034E+02
    8th-Order Moments (Debye-Ang^7)
      R(8,0)         0.524222E+02
      R(8,1)c       -0.104457E-09    R(8,1)s      0.412232E-09
      R(8,2)c        0.268604E+02    R(8,2)s     -0.497723E+01
      R(8,3)c        0.772752E-11    R(8,3)s      0.105404E-11
      R(8,4)c       -0.270956E+02    R(8,4)s      0.239048E+02
      R(8,5)c        0.356901E-09    R(8,5)s     -0.277905E-09
      R(8,6)c        0.447002E+02    R(8,6)s      0.154365E+02
      R(8,7)c       -0.438608E-10    R(8,7)s      0.154786E-09
      R(8,8)c        0.334006E+02    R(8,8)s     -0.208908E+02
    9th-Order Moments (Debye-Ang^8)
      R(9,0)         0.849081E-10
      R(9,1)c        0.164634E+02    R(9,1)s      0.532392E+02
      R(9,2)c       -0.113407E-09    R(9,2)s     -0.416026E-09
      R(9,3)c        0.673537E+02    R(9,3)s      0.228692E+01
      R(9,4)c       -0.365674E-09    R(9,4)s     -0.537364E-09
      R(9,5)c        0.686999E+02    R(9,5)s     -0.860252E+01
      R(9,6)c       -0.129445E-10    R(9,6)s     -0.273391E-09
      R(9,7)c       -0.220304E+02    R(9,7)s      0.925721E+02
      R(9,8)c       -0.161060E-09    R(9,8)s      0.428060E-09
      R(9,9)c       -0.594680E+02    R(9,9)s     -0.434358E+02
    10th-Order Moments (Debye-Ang^9)
      R(10,0)       -0.921231E+02
      R(10,1)c       0.406569E-09    R(10,1)s    -0.321787E-09
      R(10,2)c      -0.444129E+02    R(10,2)s     0.204982E+02
      R(10,3)c       0.423397E-09    R(10,3)s     0.252636E-09
      R(10,4)c       0.782498E+02    R(10,4)s    -0.101221E+03
      R(10,5)c      -0.638098E-09    R(10,5)s     0.494705E-09
      R(10,6)c       0.587590E+02    R(10,6)s    -0.130542E+03
      R(10,7)c      -0.102607E-08    R(10,7)s     0.445805E-09
      R(10,8)c      -0.153610E+03    R(10,8)s    -0.882558E+01
      R(10,9)c       0.187232E-09    R(10,9)s    -0.758205E-09
      R(10,10)c      0.344909E+02    R(10,10)s    0.968550E+02
 -----------------------------------------------------------------
 
   Multipole moments of the Stewart Charges
 -----------------------------------------------------------------
                       Multipole Moments
 -----------------------------------------------------------------
    Charge (ESU x 10^10)
                           0.0000
    Dipole Moment (Debye)
      z                    0.0000    x                1.3470
      y                    0.9644    Total            1.6567
    Quadrupole Moments (Debye-Ang)
      zz                  -1.0151
      xz                   0.0000    yz               0.0000
      xx-yy                1.3407    xy               3.7632
    Octopole Moments (Debye-Ang^2)
      zzz                  0.0000
      xzz                 -5.6709    yzz             -2.9104
      xxz-yyz              0.0000    xyz              0.0000
      xxx-xyy             -1.0449    xxy-yyy         -5.9732
    Hexadecapole Moments (Debye-Ang^3)
      zzzz                 6.9232
      xzzz                 0.0000    yzzz             0.0000
      xxzz-yyzz            8.0782    xyzz             6.8601
      xxxz-xyyz            0.0000    xxyz-yyyz        0.0000
      xxxx-xxyy+yyyy       0.6378    xxxy-xyyy       -8.5670
    5th-Order Moments (Debye-Ang^4)
      R(5,0)        -0.310449E-10
      R(5,1)c        0.109996E+02    R(5,1)s      0.613248E+01
      R(5,2)c       -0.142272E-10    R(5,2)s     -0.139695E-10
      R(5,3)c        0.211717E+02    R(5,3)s      0.134448E+02
      R(5,4)c        0.170865E-11    R(5,4)s      0.936722E-10
      R(5,5)c       -0.128424E+02    R(5,5)s      0.126442E+02
    6th-Order Moments (Debye-Ang^5)
      R(6,0)        -0.455175E+01
      R(6,1)c       -0.431511E-10    R(6,1)s     -0.105529E-09
      R(6,2)c       -0.103108E+02    R(6,2)s     -0.959400E+01
      R(6,3)c       -0.712373E-10    R(6,3)s     -0.306590E-10
      R(6,4)c       -0.206732E+01    R(6,4)s     -0.181419E+02
      R(6,5)c        0.106934E-09    R(6,5)s     -0.414604E-10
      R(6,6)c        0.388541E+01    R(6,6)s      0.773952E+01
    7th-Order Moments (Debye-Ang^6)
      R(7,0)         0.121424E-09
      R(7,1)c       -0.934374E+01    R(7,1)s      0.147558E+02
      R(7,2)c        0.129215E-09    R(7,2)s      0.126870E-09
      R(7,3)c       -0.180044E+02    R(7,3)s     -0.139431E+02
      R(7,4)c        0.291247E-11    R(7,4)s      0.159640E-09
      R(7,5)c       -0.179757E+02    R(7,5)s     -0.178463E+01
      R(7,6)c        0.957912E-10    R(7,6)s     -0.101185E-09
      R(7,7)c        0.188177E+02    R(7,7)s      0.650033E+01
    8th-Order Moments (Debye-Ang^7)
      R(8,0)        -0.214823E+02
      R(8,1)c        0.626047E-10    R(8,1)s      0.153115E-09
      R(8,2)c       -0.130333E+02    R(8,2)s     -0.122282E+02
      R(8,3)c        0.211781E-09    R(8,3)s      0.911365E-10
      R(8,4)c        0.416013E+01    R(8,4)s     -0.110147E+02
      R(8,5)c        0.254169E-09    R(8,5)s     -0.985504E-10
      R(8,6)c       -0.397152E+02    R(8,6)s      0.247060E+02
      R(8,7)c       -0.693479E-10    R(8,7)s      0.153389E-09
      R(8,8)c       -0.887234E+00    R(8,8)s      0.187889E+02
    9th-Order Moments (Debye-Ang^8)
      R(9,0)        -0.101780E-10
      R(9,1)c        0.162729E+01    R(9,1)s     -0.651824E+02
      R(9,2)c       -0.501126E-10    R(9,2)s     -0.491939E-10
      R(9,3)c       -0.219636E+02    R(9,3)s      0.152165E+01
      R(9,4)c       -0.442081E-11    R(9,4)s     -0.242213E-09
      R(9,5)c       -0.412664E+02    R(9,5)s      0.296385E+02
      R(9,6)c        0.291731E-09    R(9,6)s     -0.308163E-09
      R(9,7)c        0.835578E+00    R(9,7)s     -0.695267E+02
      R(9,8)c       -0.202408E-09    R(9,8)s      0.738815E-11
      R(9,9)c        0.274150E+02    R(9,9)s     -0.179988E+02
    10th-Order Moments (Debye-Ang^9)
      R(10,0)        0.458536E+02
      R(10,1)c       0.983776E-10    R(10,1)s     0.240616E-09
      R(10,2)c       0.381995E+02    R(10,2)s     0.338942E+02
      R(10,3)c       0.123800E-09    R(10,3)s     0.532870E-10
      R(10,4)c      -0.883457E+01    R(10,4)s     0.845656E+02
      R(10,5)c      -0.175567E-09    R(10,5)s     0.680078E-10
      R(10,6)c      -0.183886E+02    R(10,6)s     0.508833E+02
      R(10,7)c      -0.257453E-09    R(10,7)s     0.569360E-09
      R(10,8)c       0.853849E+02    R(10,8)s    -0.292763E+02
      R(10,9)c      -0.836502E-10    R(10,9)s    -0.228029E-09
      R(10,10)c     -0.514557E+02    R(10,10)s   -0.288972E+02
 -----------------------------------------------------------------
 
 -----------------------------------------------------------------
                    Cartesian Multipole Moments
                  LMN = < X^L Y^M Z^N >
 -----------------------------------------------------------------
    Charge (ESU x 10^10)
                 0.0000
    Dipole Moment (Debye)
         X       1.3470      Y       0.9644      Z       0.0000
       Tot       1.6567
    Quadrupole Moments (Debye-Ang)
        XX     -12.0108     XY      -2.1166     YY     -13.6694
        XZ       0.0000     YZ       0.0000     ZZ     -14.0337
    Octopole Moments (Debye-Ang^2)
       XXX       0.9774    XXY      -2.1109    XYY       2.3037
       YYY      -3.8644    XXZ       0.0000    XYZ       0.0000
       YYZ       0.0000    XZZ       0.6840    YZZ      -0.1369
       ZZZ       0.0000
    Hexadecapole Moments (Debye-Ang^3)
      XXXX     -20.8076   XXXY      -1.2026   XXYY     -13.3202
      XYYY      -1.5726   YYYY     -66.4497   XXXZ       0.0000
      XXYZ       0.0000   XYYZ       0.0000   YYYZ       0.0000
      XXZZ      -7.4861   XYZZ       0.9332   YYZZ     -15.3615
      XZZZ       0.0000   YZZZ       0.0000   ZZZZ     -21.6888
    5th-Order Moments (Debye-Ang^4)
       500       6.2726    410      -8.1255    320       1.0220
       230      -7.5940    140       2.0232    050     -25.6919
       401       0.0000    311       0.0000    221       0.0000
       131       0.0000    041       0.0000    302      -0.8501
       212      -2.8442    122       0.0323    032      -6.4820
       203       0.0000    113       0.0000    023       0.0000
       104      -2.7716    014      -9.3149    005       0.0000
    6th-Order Moments (Debye-Ang^5)
       600     -72.8073    510      10.1578    420     -28.2519
       330       1.8165    240     -40.9305    150      -1.2433
       060    -258.3610    501       0.0000    411       0.0000
       321       0.0000    231       0.0000    141       0.0000
       051       0.0000    402     -14.2595    312      -0.3576
       222     -10.1667    132      -0.8891    042     -44.4013
       303       0.0000    213       0.0000    123       0.0000
       033       0.0000    204     -13.6257    114      -3.0715
       024     -30.8451    105       0.0000    015       0.0000
       006     -72.1556
    7th-Order Moments (Debye-Ang^6)
       700      43.2113    610     -34.8275    520       7.2580
       430     -20.8629    340       2.8313    250     -31.4131
       160      -5.4733    070    -155.6462    601       0.0000
       511       0.0000    421       0.0000    331       0.0000
       241       0.0000    151       0.0000    061       0.0000
       502      -0.8607    412      -7.5673    322      -2.0378
       232      -7.6009    142      -4.7210    052     -37.9834
       403       0.0000    313       0.0000    223       0.0000
       133       0.0000    043       0.0000    304      -5.0337
       214      -7.7256    124      -5.2269    034     -26.6309
       205       0.0000    115       0.0000    025       0.0000
       106     -15.9387    016     -44.1484    007       0.0000
    8th-Order Moments (Debye-Ang^7)
       800    -396.7511    710      69.2468    620    -110.8213
       530      23.6510    440     -91.5160    350      12.2620
       260    -181.5699    170     -14.6432    080   -1330.7891
       701       0.0000    611       0.0000    521       0.0000
       431       0.0000    341       0.0000    251       0.0000
       161       0.0000    071       0.0000    602     -53.6321
       512       0.7687    422     -22.6567    332      -2.4828
       242     -32.4040    152     -11.5316    062    -202.7853
       503       0.0000    413       0.0000    323       0.0000
       233       0.0000    143       0.0000    053       0.0000
       404     -32.0877    314      -5.3564    224     -22.9889
       134      -9.9914    044    -105.0907    305       0.0000
       215       0.0000    125       0.0000    035       0.0000
       206     -55.4393    116     -18.3524    026    -124.7284
       107       0.0000    017       0.0000    008    -408.7480
    9th-Order Moments (Debye-Ang^8)
       900     337.5211    810    -217.4199    720      51.0415
       630     -93.1580    540      17.6123    450     -88.4239
       360       1.0596    270    -178.5197    180     -80.8681
       090   -1225.1180    801       0.0000    711       0.0000
       621       0.0000    531       0.0000    441       0.0000
       351       0.0000    261       0.0000    171       0.0000
       081       0.0000    702       0.2570    612     -32.0530
       522      -4.9366    432     -20.9189    342      -9.4865
       252     -35.1397    162     -33.5619    072    -241.8929
       603       0.0000    513       0.0000    423       0.0000
       333       0.0000    243       0.0000    153       0.0000
       063       0.0000    504     -16.3948    414     -20.7933
       324     -10.7383    234     -23.4777    144     -22.5701
       054    -128.1704    405       0.0000    315       0.0000
       225       0.0000    135       0.0000    045       0.0000
       306     -33.2454    216     -38.1933    126     -31.1922
       036    -135.6329    207       0.0000    117       0.0000
       027       0.0000    108    -118.4631    018    -294.3643
       009       0.0000
    10th-Order Moments (Debye-Ang^9)
     10  0  0   -3908.8190   9  1  0     560.9223   8  2  0    -746.2416
      7  3  0     167.3574   6  4  0    -426.6056   5  5  0      85.0511
      4  6  0    -499.8087   3  7  0      39.3494   2  8  0   -1243.5911
      1  9  0    -240.0426   0 10  0  -10975.0047   9  0  1       0.0000
      8  1  1       0.0000   7  2  1       0.0000   6  3  1       0.0000
      5  4  1       0.0000   4  5  1       0.0000   3  6  1       0.0000
      2  7  1       0.0000   1  8  1       0.0000   0  9  1       0.0000
      8  0  2    -425.7364   7  1  2      13.7054   6  2  2    -108.5681
      5  3  2      -3.5109   4  4  2     -90.8156   3  5  2     -18.0670
      2  6  2    -185.6898   1  7  2     -90.1582   0  8  2   -1479.9717
      7  0  3       0.0000   6  1  3       0.0000   5  2  3       0.0000
      4  3  3       0.0000   3  4  3       0.0000   2  5  3       0.0000
      1  6  3       0.0000   0  7  3       0.0000   6  0  4    -185.5117
      5  1  4     -15.3705   4  2  4     -68.5710   3  3  4     -19.1279
      2  4  4     -98.5713   1  5  4     -54.1080   0  6  4    -632.3336
      5  0  5       0.0000   4  1  5       0.0000   3  2  5       0.0000
      2  3  5       0.0000   1  4  5       0.0000   0  5  5       0.0000
      4  0  6    -193.2608   3  1  6     -36.7598   2  2  6    -122.6207
      1  3  6     -60.5203   0  4  6    -544.8279   3  0  7       0.0000
      2  1  7       0.0000   1  2  7       0.0000   0  3  7       0.0000
      2  0  8    -474.4676   1  1  8    -136.9308   0  2  8    -925.4521
      1  0  9       0.0000   0  1  9       0.0000   0  0 10   -4484.5212
 -----------------------------------------------------------------
 Electrostatic potential will be computed using the SCF density
 File opened: IUnit =            9
 right. NPoint =          194
 EField
            1           2           3           4           5           6
    1   0.0023798   0.0006829  -0.0002471  -0.0028195  -0.0009890  -0.0009890
    2   0.0006818  -0.0017026   0.0010390   0.0018470  -0.0010344  -0.0010344
    3  -0.0000000  -0.0000000  -0.0000000  -0.0000000  -0.0004833   0.0004833
            7           8           9          10          11          12
    1  -0.0006887  -0.0019101  -0.0006887  -0.0019101   0.0001484   0.0006870
    2   0.0003494   0.0012596   0.0003494   0.0012596  -0.0001388  -0.0014115
    3   0.0009687  -0.0018279  -0.0009687   0.0018279   0.0016643  -0.0008655
           13          14          15          16          17          18
    1   0.0001484   0.0006870   0.0005149  -0.0013292   0.0019418   0.0031898
    2  -0.0001388  -0.0014115   0.0009677   0.0006183  -0.0038093   0.0022564
    3  -0.0016643   0.0008655  -0.0000000  -0.0000000  -0.0000000  -0.0000000
           19          20          21          22          23          24
    1   0.0006037  -0.0005272  -0.0009050   0.0018941   0.0006037  -0.0005272
    2   0.0008680  -0.0005448  -0.0012431   0.0011057   0.0008680  -0.0005448
    3   0.0010491   0.0006527   0.0021348  -0.0026170  -0.0010491  -0.0006527
           25          26          27          28          29          30
    1  -0.0009050   0.0018941   0.0006223  -0.0009525   0.0008088   0.0028192
    2  -0.0012431   0.0011057   0.0010127   0.0001277  -0.0027820   0.0019214
    3  -0.0021348   0.0026170   0.0003664   0.0007841   0.0022513  -0.0016193
           31          32          33          34          35          36
    1   0.0006223  -0.0009525   0.0008088   0.0028192   0.0005025  -0.0001195
    2   0.0010127   0.0001277  -0.0027820   0.0019214   0.0003227  -0.0012109
    3  -0.0003664  -0.0007841  -0.0022513   0.0016193   0.0013769   0.0001349
           37          38          39          40          41          42
    1  -0.0002878   0.0015866   0.0005025  -0.0001195  -0.0002878   0.0015866
    2  -0.0006262  -0.0006053   0.0003227  -0.0012109  -0.0006262  -0.0006053
    3   0.0020022  -0.0020028  -0.0013769  -0.0001349  -0.0020022   0.0020028
           43          44          45          46          47          48
    1  -0.0000267  -0.0006567  -0.0024028   0.0001254  -0.0000267  -0.0006567
    2   0.0008797  -0.0002589  -0.0001651   0.0017459   0.0008797  -0.0002589
    3   0.0012628   0.0006319   0.0003875  -0.0029275  -0.0012628  -0.0006319
           49          50          51          52          53          54
    1  -0.0024028   0.0001254  -0.0005928  -0.0005753  -0.0016280  -0.0001856
    2  -0.0001651   0.0017459  -0.0004474  -0.0010698  -0.0005971  -0.0005813
    3  -0.0003875   0.0029275   0.0011672  -0.0000707  -0.0001013  -0.0022292
           55          56          57          58          59          60
    1  -0.0005928  -0.0005753  -0.0016280  -0.0001856   0.0000494  -0.0005691
    2  -0.0004474  -0.0010698  -0.0005971  -0.0005813   0.0010960   0.0006598
    3  -0.0011672   0.0000707   0.0001013   0.0022292   0.0003125   0.0005232
           61          62          63          64          65          66
    1  -0.0027802  -0.0003367   0.0000494  -0.0005691  -0.0027802  -0.0003367
    2  -0.0011074   0.0036757   0.0010960   0.0006598  -0.0011074   0.0036757
    3   0.0008206  -0.0013604  -0.0003125  -0.0005232  -0.0008206   0.0013604
           67          68          69          70          71          72
    1   0.0012422  -0.0005753   0.0025214   0.0022776   0.0012422  -0.0005753
    2   0.0009107  -0.0012661  -0.0005251  -0.0009460   0.0009107  -0.0012661
    3   0.0007005   0.0004127   0.0016976  -0.0007278  -0.0007005  -0.0004127
           73          74          75          76          77          78
    1   0.0025214   0.0022776   0.0000796  -0.0004591  -0.0016832   0.0007767
    2  -0.0005251  -0.0009460   0.0002660  -0.0009016  -0.0005567   0.0001655
    3  -0.0016976   0.0007278   0.0014963   0.0002575   0.0008952  -0.0027796
           79          80          81          82          83          84
    1   0.0000796  -0.0004591  -0.0016832   0.0007767   0.0003410  -0.0006311
    2   0.0002660  -0.0009016  -0.0005567   0.0001655   0.0011652   0.0001425
    3  -0.0014963  -0.0002575  -0.0008952   0.0027796   0.0006090   0.0007241
           85          86          87          88          89          90
    1  -0.0018263   0.0011908   0.0003410  -0.0006311  -0.0018263   0.0011908
    2  -0.0016273   0.0028776   0.0011652   0.0001425  -0.0016273   0.0028776
    3   0.0017140  -0.0023356  -0.0006090  -0.0007241  -0.0017140   0.0023356
           91          92          93          94          95          96
    1   0.0008590  -0.0006293   0.0012047   0.0025725   0.0008590  -0.0006293
    2   0.0008254  -0.0008231  -0.0012584   0.0000199   0.0008254  -0.0008231
    3   0.0008202   0.0006751   0.0024754  -0.0016610  -0.0008202  -0.0006751
           97          98          99         100         101         102
    1   0.0012047   0.0025725  -0.0009614  -0.0007671  -0.0012737  -0.0007793
    2  -0.0012584   0.0000199  -0.0008964  -0.0011098  -0.0008618  -0.0009684
    3  -0.0024754   0.0016610   0.0003310  -0.0003343  -0.0004859  -0.0013140
          103         104         105         106         107         108
    1  -0.0009614  -0.0007671  -0.0012737  -0.0007793  -0.0001102  -0.0004078
    2  -0.0008964  -0.0011098  -0.0008618  -0.0009684   0.0010414   0.0009555
    3  -0.0003310   0.0003343   0.0004859   0.0013140   0.0001647   0.0002286
          109         110         111         112         113         114
    1  -0.0031575  -0.0019233  -0.0001102  -0.0004078  -0.0031575  -0.0019233
    2   0.0003729   0.0030800   0.0010414   0.0009555   0.0003729   0.0030800
    3   0.0001053  -0.0003923  -0.0001647  -0.0002286  -0.0001053   0.0003923
          115         116         117         118         119         120
    1   0.0018575  -0.0000300   0.0027216   0.0014644   0.0018575  -0.0000300
    2   0.0008921  -0.0016289   0.0002537  -0.0015257   0.0008921  -0.0016289
    3   0.0004392   0.0000882   0.0006697  -0.0001600  -0.0004392  -0.0000882
          121         122         123         124         125         126
    1   0.0027216   0.0014644   0.0001469  -0.0006078  -0.0024194   0.0001291
    2   0.0002537  -0.0015257   0.0010043   0.0009230  -0.0023896   0.0040858
    3  -0.0006697   0.0001600  -0.0000000  -0.0000000  -0.0000000  -0.0000000
          127         128         129         130         131         132
    1   0.0012525  -0.0011277   0.0034313   0.0026390  -0.0010047  -0.0002371
    2   0.0010670  -0.0010436  -0.0008809  -0.0007319  -0.0007367  -0.0012186
    3  -0.0000000  -0.0000000  -0.0000000  -0.0000000   0.0006652  -0.0011300
          133         134         135         136         137         138
    1  -0.0010047  -0.0002371   0.0017650   0.0008153   0.0017650   0.0008153
    2  -0.0007367  -0.0012186   0.0004794  -0.0016183   0.0004794  -0.0016183
    3  -0.0006652   0.0011300   0.0013120  -0.0001934  -0.0013120   0.0001934
          139         140         141         142         143         144
    1  -0.0008374  -0.0013012  -0.0008374  -0.0013012  -0.0003780  -0.0025788
    2  -0.0007042  -0.0004001  -0.0007042  -0.0004001   0.0008838   0.0019851
    3   0.0006186  -0.0016363  -0.0006186   0.0016363   0.0004869  -0.0006194
          145         146         147         148         149         150
    1  -0.0003780  -0.0025788  -0.0002959  -0.0006244  -0.0027863  -0.0012350
    2   0.0008838   0.0019851   0.0009977   0.0004038   0.0007274   0.0026133
    3  -0.0004869   0.0006194   0.0007756   0.0006886  -0.0002299  -0.0020089
          151         152         153         154         155         156
    1  -0.0002959  -0.0006244  -0.0027863  -0.0012350  -0.0005798  -0.0007798
    2   0.0009977   0.0004038   0.0007274   0.0026133   0.0000590  -0.0004704
    3  -0.0007756  -0.0006886   0.0002299   0.0020089   0.0012848   0.0006343
          157         158         159         160         161         162
    1  -0.0020298  -0.0008091  -0.0005798  -0.0007798  -0.0020298  -0.0008091
    2   0.0000807   0.0005289   0.0000590  -0.0004704   0.0000807   0.0005289
    3  -0.0010469  -0.0026043  -0.0012848  -0.0006343   0.0010469   0.0026043
          163         164         165         166         167         168
    1   0.0009477   0.0002471   0.0010679   0.0015036   0.0009477   0.0002471
    2   0.0004555  -0.0014841  -0.0001440  -0.0012737   0.0004555  -0.0014841
    3   0.0013770  -0.0000120   0.0020060  -0.0009874  -0.0013770   0.0000120
          169         170         171         172         173         174
    1   0.0010679   0.0015036   0.0008239  -0.0013956   0.0029633   0.0032219
    2  -0.0001440  -0.0012737   0.0010170  -0.0002539  -0.0022321   0.0005203
    3  -0.0020060   0.0009874   0.0002312   0.0004780   0.0012990  -0.0006663
          175         176         177         178         179         180
    1   0.0008239  -0.0013956   0.0029633   0.0032219  -0.0002667  -0.0000157
    2   0.0010170  -0.0002539  -0.0022321   0.0005203  -0.0003033  -0.0013241
    3  -0.0002312  -0.0004780  -0.0012990   0.0006663   0.0013748  -0.0005444
          181         182         183         184         185         186
    1  -0.0009128   0.0005787  -0.0002667  -0.0000157  -0.0009128   0.0005787
    2  -0.0005665  -0.0010566  -0.0003033  -0.0013241  -0.0005665  -0.0010566
    3   0.0011852  -0.0017565  -0.0013748   0.0005444  -0.0011852   0.0017565
          187         188         189         190         191         192
    1   0.0003418  -0.0008295  -0.0006184   0.0019286   0.0003418  -0.0008295
    2   0.0009992   0.0007542  -0.0035674   0.0035590   0.0009992   0.0007542
    3   0.0001165   0.0004201   0.0011397  -0.0009048  -0.0001165  -0.0004201
          193         194
    1  -0.0006184   0.0019286
    2  -0.0035674   0.0035590
    3  -0.0011397   0.0009048
 In PlotFile. NPPer =          194
  --- DONE ESP SUMMARY ---
Archival summary:
1\1\hpc-cn11.marqnet.mu.edu\SP\ProcedureUnspecified\BasisUnspecified\114\6498ivano\FriSep1121:51:372015FriSep1121:51:372015\0\\#,ProcedureUnspecified,BasisUnspecified,\\0,1\O\H,1,0.963936\C,1,1.42693,2,108.883\H,3,1.09645,1,106.588,2,-180,0\H,3,1.10256,1,111.991,2,-61.4693,0\H,3,1.10256,1,111.991,2,61.4693,0\\\@

 Total job time:  7.19s(wall), 54.07s(cpu) 
 Fri Sep 11 21:51:37 2015

        *************************************************************
        *                                                           *
        *  Thank you very much for using Q-Chem.  Have a nice day.  *
        *                                                           *
        *************************************************************


0 sent ACK to 0 
now end server 0 ... 
cleanup process ... done
