cis-mesno                                                               
FOpt      RB3LYP                                                      Aug-CC-pVDZ         
Number of atoms                            I                7
Info1-9                                    I   N=           9
          34          32           0           0           0         110
           2          18        -502
Charge                                     I                0
Multiplicity                               I                1
Number of electrons                        I               40
Number of alpha electrons                  I               20
Number of beta electrons                   I               20
Number of basis functions                  I              123
Number of independent functions            I              123
Number of point charges in /Mol/           I                0
Number of translation vectors              I                0
Atomic numbers                             I   N=           7
           8           7          16           6           1           1
           1
Nuclear charges                            R   N=           7
  8.00000000E+00  7.00000000E+00  1.60000000E+01  6.00000000E+00  1.00000000E+00
  1.00000000E+00  1.00000000E+00
Current cartesian coordinates              R   N=          21
 -1.47991345E+00 -2.85544191E+00  0.00000000E+00 -2.33126459E+00 -7.77067975E-01
 -1.23259516E-31  1.11022302E-16  1.81768619E+00  0.00000000E+00  2.93228812E+00
  2.26004778E-02  8.62816615E-32  4.48427123E+00  1.39469931E+00  1.47911420E-31
  3.04007991E+00 -1.16513511E+00  1.69500643E+00  3.04007991E+00 -1.16513511E+00
 -1.69500643E+00
Force Field                                I                0
Int Atom Types                             I   N=           7
           0           0           0           0           0           0
           0
MM charges                                 R   N=           7
  0.00000000E+00  0.00000000E+00  0.00000000E+00  0.00000000E+00  0.00000000E+00
  0.00000000E+00  0.00000000E+00
Integer atomic weights                     I   N=           7
          16          14          32          12           1           1
           1
Real atomic weights                        R   N=           7
  1.59949146E+01  1.40030740E+01  3.19720718E+01  1.20000000E+01  1.00782504E+00
  1.00782504E+00  1.00782504E+00
Atom fragment info                         I   N=           7
           0           0           0           0           0           0
           0
Atom residue num                           I   N=           7
           0           0           0           0           0           0
           0
Nuclear spins                              I   N=           7
           0           2           0           0           1           1
           1
Nuclear ZEff                               R   N=           7
 -5.60000000E+00 -4.55000000E+00 -1.36000000E+01 -3.60000000E+00 -1.00000000E+00
 -1.00000000E+00 -1.00000000E+00
Nuclear ZNuc                               R   N=           7
  8.00000000E+00  7.00000000E+00  1.60000000E+01  6.00000000E+00  1.00000000E+00
  1.00000000E+00  1.00000000E+00
Nuclear QMom                               R   N=           7
  0.00000000E+00  2.04400000E+00  0.00000000E+00  0.00000000E+00  0.00000000E+00
  0.00000000E+00  0.00000000E+00
Nuclear GFac                               R   N=           7
  0.00000000E+00  4.03761000E-01  0.00000000E+00  0.00000000E+00  2.79284600E+00
  2.79284600E+00  2.79284600E+00
MicOpt                                     I   N=           7
          -1          -1          -1          -1          -1          -1
          -1
Number of contracted shells                I               53
Number of primitive shells                 I              133
Pure/Cartesian d shells                    I                0
Pure/Cartesian f shells                    I                0
Highest angular momentum                   I                2
Largest degree of contraction              I                9
Shell types                                I   N=          53
           0           0           0           0           1           1
           1          -2          -2           0           0           0
           0           1           1           1          -2          -2
           0           0           0           0           0           1
           1           1           1          -2          -2           0
           0           0           0           1           1           1
          -2          -2           0           0           0           1
           1           0           0           0           1           1
           0           0           0           1           1
Number of primitives per shell             I   N=          53
           7           7           1           1           3           1
           1           1           1           7           7           1
           1           3           1           1           1           1
           9           8           8           1           1           6
           6           1           1           1           1           7
           7           1           1           3           1           1
           1           1           3           1           1           1
           1           3           1           1           1           1
           3           1           1           1           1
Shell to atom map                          I   N=          53
           1           1           1           1           1           1
           1           1           1           2           2           2
           2           2           2           2           2           2
           3           3           3           3           3           3
           3           3           3           3           3           4
           4           4           4           4           4           4
           4           4           5           5           5           5
           5           6           6           6           6           6
           7           7           7           7           7
Primitive exponents                        R   N=         133
  1.17200000E+04  1.75900000E+03  4.00800000E+02  1.13700000E+02  3.70300000E+01
  1.32700000E+01  5.02500000E+00  1.17200000E+04  4.00800000E+02  1.13700000E+02
  3.70300000E+01  1.32700000E+01  5.02500000E+00  1.01300000E+00  3.02300000E-01
  7.89600000E-02  1.77000000E+01  3.85400000E+00  1.04600000E+00  2.75300000E-01
  6.85600000E-02  1.18500000E+00  3.32000000E-01  9.04600000E+03  1.35700000E+03
  3.09300000E+02  8.77300000E+01  2.85600000E+01  1.02100000E+01  3.83800000E+00
  9.04600000E+03  3.09300000E+02  8.77300000E+01  2.85600000E+01  1.02100000E+01
  3.83800000E+00  7.46600000E-01  2.24800000E-01  6.12400000E-02  1.35500000E+01
  2.91700000E+00  7.97300000E-01  2.18500000E-01  5.61100000E-02  8.17000000E-01
  2.30000000E-01  1.10800000E+05  1.66100000E+04  3.78100000E+03  1.07100000E+03
  3.49800000E+02  1.26300000E+02  4.92600000E+01  2.01600000E+01  5.72000000E+00
  3.78100000E+03  1.07100000E+03  3.49800000E+02  1.26300000E+02  4.92600000E+01
  2.01600000E+01  5.72000000E+00  2.18200000E+00  3.78100000E+03  1.07100000E+03
  1.26300000E+02  4.92600000E+01  2.01600000E+01  5.72000000E+00  2.18200000E+00
  4.32700000E-01  1.57000000E-01  5.07000000E-02  3.99700000E+02  9.41900000E+01
  2.97500000E+01  1.07700000E+01  4.11900000E+00  1.62500000E+00  9.41900000E+01
  2.97500000E+01  1.07700000E+01  4.11900000E+00  1.62500000E+00  4.72600000E-01
  1.40700000E-01  3.99000000E-02  4.79000000E-01  1.52000000E-01  6.66500000E+03
  1.00000000E+03  2.28000000E+02  6.47100000E+01  2.10600000E+01  7.49500000E+00
  2.79700000E+00  6.66500000E+03  2.28000000E+02  6.47100000E+01  2.10600000E+01
  7.49500000E+00  2.79700000E+00  5.21500000E-01  1.59600000E-01  4.69000000E-02
  9.43900000E+00  2.00200000E+00  5.45600000E-01  1.51700000E-01  4.04100000E-02
  5.50000000E-01  1.51000000E-01  1.30100000E+01  1.96200000E+00  4.44600000E-01
  1.22000000E-01  2.97400000E-02  7.27000000E-01  1.41000000E-01  1.30100000E+01
  1.96200000E+00  4.44600000E-01  1.22000000E-01  2.97400000E-02  7.27000000E-01
  1.41000000E-01  1.30100000E+01  1.96200000E+00  4.44600000E-01  1.22000000E-01
  2.97400000E-02  7.27000000E-01  1.41000000E-01
Contraction coefficients                   R   N=         133
  7.11864434E-04  5.48520199E-03  2.79099296E-02  1.05133208E-01  2.84002490E-01
  4.51673946E-01  2.73208126E-01  7.69030046E-06  3.13484579E-04 -2.96614853E-03
 -1.08753543E-02 -1.20753817E-01 -1.06275264E-01  1.09597548E+00  1.00000000E+00
  1.00000000E+00  6.26791663E-02  3.33536566E-01  7.41239642E-01  1.00000000E+00
  1.00000000E+00  1.00000000E+00  1.00000000E+00  7.01708743E-04  5.40299880E-03
  2.74729510E-02  1.03514580E-01  2.79586579E-01  4.51317241E-01  2.80626875E-01
  7.77446797E-06  3.00742072E-04 -2.80016549E-03 -9.89708505E-03 -1.14331114E-01
 -1.18162383E-01  1.09786885E+00  1.00000000E+00  1.00000000E+00  5.89056768E-02
  3.20461107E-01  7.53042062E-01  1.00000000E+00  1.00000000E+00  1.00000000E+00
  1.00000000E+00  2.47326450E-04  1.91784961E-03  9.94916493E-03  4.02460657E-02
  1.28427229E-01  3.03028122E-01  4.20536130E-01  2.30222812E-01  2.02131090E-02
 -5.70425820E-05 -1.86038802E-04 -3.42700926E-03 -1.56230464E-02 -8.13038611E-02
 -5.83105948E-02  5.04676433E-01  5.99457921E-01 -7.06030825E-06  2.62827525E-05
  1.43025203E-03  4.15087004E-03  1.07143328E-02 -1.13704112E-01 -4.13480735E-01
  1.21911288E+00  1.00000000E+00  1.00000000E+00  4.49209853E-03  3.42942343E-02
  1.44817316E-01  3.55275539E-01  4.61319195E-01  2.05629925E-01  3.59112097E-04
 -2.64993410E-03 -2.50097780E-03 -4.70496051E-02  1.37165178E-01  9.23540889E-01
  1.00000000E+00  1.00000000E+00  1.00000000E+00  1.00000000E+00  6.93516317E-04
  5.34150243E-03  2.71366714E-02  1.01992385E-01  2.75508636E-01  4.51086433E-01
  2.87565745E-01  7.73354740E-06  2.78072137E-04 -2.57875654E-03 -8.95087684E-03
 -1.06058855E-01 -1.31517686E-01  1.09948660E+00  1.00000000E+00  1.00000000E+00
  5.69792516E-02  3.13207212E-01  7.60376742E-01  1.00000000E+00  1.00000000E+00
  1.00000000E+00  1.00000000E+00  3.34987264E-02  2.34800801E-01  8.13682958E-01
  1.00000000E+00  1.00000000E+00  1.00000000E+00  1.00000000E+00  3.34987264E-02
  2.34800801E-01  8.13682958E-01  1.00000000E+00  1.00000000E+00  1.00000000E+00
  1.00000000E+00  3.34987264E-02  2.34800801E-01  8.13682958E-01  1.00000000E+00
  1.00000000E+00  1.00000000E+00  1.00000000E+00
Coordinates of each shell                  R   N=         159
 -1.47991345E+00 -2.85544191E+00 -1.97215226E-31 -1.47991345E+00 -2.85544191E+00
 -1.97215226E-31 -1.47991345E+00 -2.85544191E+00 -1.97215226E-31 -1.47991345E+00
 -2.85544191E+00 -1.97215226E-31 -1.47991345E+00 -2.85544191E+00 -1.97215226E-31
 -1.47991345E+00 -2.85544191E+00 -1.97215226E-31 -1.47991345E+00 -2.85544191E+00
 -1.97215226E-31 -1.47991345E+00 -2.85544191E+00 -1.97215226E-31 -1.47991345E+00
 -2.85544191E+00 -1.97215226E-31 -2.33126459E+00 -7.77067975E-01  2.34193081E-31
 -2.33126459E+00 -7.77067975E-01  2.34193081E-31 -2.33126459E+00 -7.77067975E-01
  2.34193081E-31 -2.33126459E+00 -7.77067975E-01  2.34193081E-31 -2.33126459E+00
 -7.77067975E-01  2.34193081E-31 -2.33126459E+00 -7.77067975E-01  2.34193081E-31
 -2.33126459E+00 -7.77067975E-01  2.34193081E-31 -2.33126459E+00 -7.77067975E-01
  2.34193081E-31 -2.33126459E+00 -7.77067975E-01  2.34193081E-31  2.22044605E-16
  1.81768619E+00  0.00000000E+00  2.22044605E-16  1.81768619E+00  0.00000000E+00
  2.22044605E-16  1.81768619E+00  0.00000000E+00  2.22044605E-16  1.81768619E+00
  0.00000000E+00  2.22044605E-16  1.81768619E+00  0.00000000E+00  2.22044605E-16
  1.81768619E+00  0.00000000E+00  2.22044605E-16  1.81768619E+00  0.00000000E+00
  2.22044605E-16  1.81768619E+00  0.00000000E+00  2.22044605E-16  1.81768619E+00
  0.00000000E+00  2.22044605E-16  1.81768619E+00  0.00000000E+00  2.22044605E-16
  1.81768619E+00  0.00000000E+00  2.93228812E+00  2.26004778E-02 -1.17096541E-31
  2.93228812E+00  2.26004778E-02 -1.17096541E-31  2.93228812E+00  2.26004778E-02
 -1.17096541E-31  2.93228812E+00  2.26004778E-02 -1.17096541E-31  2.93228812E+00
  2.26004778E-02 -1.17096541E-31  2.93228812E+00  2.26004778E-02 -1.17096541E-31
  2.93228812E+00  2.26004778E-02 -1.17096541E-31  2.93228812E+00  2.26004778E-02
 -1.17096541E-31  2.93228812E+00  2.26004778E-02 -1.17096541E-31  4.48427123E+00
  1.39469931E+00 -4.93038066E-31  4.48427123E+00  1.39469931E+00 -4.93038066E-31
  4.48427123E+00  1.39469931E+00 -4.93038066E-31  4.48427123E+00  1.39469931E+00
 -4.93038066E-31  4.48427123E+00  1.39469931E+00 -4.93038066E-31  3.04007991E+00
 -1.16513511E+00  1.69500643E+00  3.04007991E+00 -1.16513511E+00  1.69500643E+00
  3.04007991E+00 -1.16513511E+00  1.69500643E+00  3.04007991E+00 -1.16513511E+00
  1.69500643E+00  3.04007991E+00 -1.16513511E+00  1.69500643E+00  3.04007991E+00
 -1.16513511E+00 -1.69500643E+00  3.04007991E+00 -1.16513511E+00 -1.69500643E+00
  3.04007991E+00 -1.16513511E+00 -1.69500643E+00  3.04007991E+00 -1.16513511E+00
 -1.69500643E+00  3.04007991E+00 -1.16513511E+00 -1.69500643E+00
Constraint Structure                       R   N=          21
 -1.72027849E+00 -3.13075695E+00  0.00000000E+00 -2.47959372E+00 -5.96446886E-01
  0.00000000E+00  2.22044605E-16  1.21503265E+00  0.00000000E+00  3.22920970E+00
  1.09521825E+00  0.00000000E+00  3.98664762E+00  3.00866765E+00  0.00000000E+00
  3.87873909E+00  1.00342124E-01  1.68027791E+00  3.87873909E+00  1.00342124E-01
 -1.68027791E+00
Num ILSW                                   I              100
ILSW                                       I   N=         100
           0           0           0           0           2           0
           0           0           0           0         402          -1
           0           0           0           0           2           0
           0           0           0           0           1           0
           1           0           0           0           0           0
           0           0      100000           0          -1           0
           0           0           0           0           0           0
           0           0           0           1           0           0
           0           0           1           0           0           0
           0           0           4          41           0           0
           0           0           5           0           0           0
           0           0           0           7           0           0
           0           0           0           0           0           0
           0           0           0           0           0           0
           0           0           0           0           0           0
           0           0           0           0           0           0
           0           0           0           0
Num RLSW                                   I               41
RLSW                                       R   N=          41
  8.00000000E-01  7.20000000E-01  1.00000000E+00  8.10000000E-01  2.00000000E-01
  0.00000000E+00  0.00000000E+00  1.00000000E+00  0.00000000E+00  0.00000000E+00
  0.00000000E+00  0.00000000E+00  1.00000000E+00  0.00000000E+00  0.00000000E+00
  0.00000000E+00  0.00000000E+00  1.00000000E+00  0.00000000E+00  0.00000000E+00
  0.00000000E+00  0.00000000E+00  1.00000000E+00  0.00000000E+00  0.00000000E+00
  0.00000000E+00  0.00000000E+00  1.00000000E+00  0.00000000E+00  0.00000000E+00
  0.00000000E+00  0.00000000E+00  1.00000000E+00  0.00000000E+00  0.00000000E+00
  0.00000000E+00  0.00000000E+00  0.00000000E+00  1.00000000E+00  1.00000000E+00
  0.00000000E+00
MxBond                                     I                4
NBond                                      I   N=           7
           1           2           2           4           1           1
           1
IBond                                      I   N=          28
           2           0           0           0           1           3
           0           0           2           4           0           0
           3           5           6           7           4           0
           0           0           4           0           0           0
           4           0           0           0
RBond                                      R   N=          28
  1.00000000E+00  0.00000000E+00  0.00000000E+00  0.00000000E+00  1.00000000E+00
  1.00000000E+00  0.00000000E+00  0.00000000E+00  1.00000000E+00  1.00000000E+00
  0.00000000E+00  0.00000000E+00  1.00000000E+00  1.00000000E+00  1.00000000E+00
  1.00000000E+00  1.00000000E+00  0.00000000E+00  0.00000000E+00  0.00000000E+00
  1.00000000E+00  0.00000000E+00  0.00000000E+00  0.00000000E+00  1.00000000E+00
  0.00000000E+00  0.00000000E+00  0.00000000E+00
Virial Ratio                               R      2.003619047774690E+00
SCF Energy                                 R     -5.680477758205931E+02
Total Energy                               R     -5.680477758205931E+02
RMS Force                                  R      4.726255723648259E-05
RMS Density                                R      4.141783897350989E-09
External E-field                           R   N=          35
  0.00000000E+00  0.00000000E+00  0.00000000E+00  0.00000000E+00  0.00000000E+00
  0.00000000E+00  0.00000000E+00  0.00000000E+00  0.00000000E+00  0.00000000E+00
  0.00000000E+00  0.00000000E+00  0.00000000E+00  0.00000000E+00  0.00000000E+00
  0.00000000E+00  0.00000000E+00  0.00000000E+00  0.00000000E+00  0.00000000E+00
  0.00000000E+00  0.00000000E+00  0.00000000E+00  0.00000000E+00  0.00000000E+00
  0.00000000E+00  0.00000000E+00  0.00000000E+00  0.00000000E+00  0.00000000E+00
  0.00000000E+00  0.00000000E+00  0.00000000E+00  0.00000000E+00  0.00000000E+00
IOpCl                                      I                0
IROHF                                      I                0
Alpha Orbital Energies                     R   N=         123
 -8.89182798E+01 -1.92386343E+01 -1.44910184E+01 -1.02330711E+01 -7.97845623E+00
 -5.94230727E+00 -5.93814228E+00 -5.93384814E+00 -1.20462325E+00 -8.19132943E-01
 -7.22743784E-01 -6.15812815E-01 -5.16144334E-01 -4.90430264E-01 -4.82528641E-01
 -4.43739139E-01 -4.31720818E-01 -3.66876543E-01 -2.74514783E-01 -2.54214600E-01
 -1.03516186E-01 -3.00891048E-02 -1.16009558E-02  1.15416856E-02  2.14729804E-02
  2.26875153E-02  5.50359295E-02  6.92568515E-02  7.92302201E-02  8.07511750E-02
  8.17999138E-02  8.61754855E-02  1.10893200E-01  1.15801289E-01  1.33383025E-01
  1.35434999E-01  1.49896248E-01  1.53316742E-01  1.68422238E-01  1.88284074E-01
  1.89417717E-01  2.26697202E-01  2.36902550E-01  2.52179196E-01  2.69554893E-01
  2.76106652E-01  3.06075658E-01  3.13704379E-01  3.25314472E-01  3.37818899E-01
  3.72651313E-01  3.76667407E-01  3.98648484E-01  4.05807218E-01  4.12605774E-01
  4.35718963E-01  4.69413204E-01  4.76650289E-01  4.86778525E-01  5.08300767E-01
  5.22511689E-01  5.28494337E-01  5.67603767E-01  6.07742203E-01  6.11799332E-01
  6.41756062E-01  6.47579784E-01  7.13643224E-01  7.15826088E-01  7.30214470E-01
  7.41199168E-01  7.74226286E-01  8.22366723E-01  8.50295801E-01  8.57033962E-01
  8.78813741E-01  9.02099488E-01  9.19888412E-01  9.36018300E-01  9.61867071E-01
  9.66276371E-01  9.74097280E-01  1.01785616E+00  1.02655081E+00  1.02954443E+00
  1.11142622E+00  1.12406668E+00  1.15150582E+00  1.19234926E+00  1.19758193E+00
  1.26586205E+00  1.31085037E+00  1.43420249E+00  1.44210167E+00  1.54908790E+00
  1.55670641E+00  1.58543955E+00  1.61268003E+00  1.76934458E+00  1.77295109E+00
  1.80647826E+00  1.86029372E+00  1.89358482E+00  1.90209542E+00  1.93535447E+00
  2.05036254E+00  2.15006684E+00  2.16514806E+00  2.21130165E+00  2.24325013E+00
  2.25340537E+00  2.26586116E+00  2.35572109E+00  2.47689607E+00  2.55415757E+00
  2.57298238E+00  2.65584184E+00  3.13629726E+00  3.27933389E+00  3.34845119E+00
  3.44722359E+00  3.50799927E+00  3.67637169E+00
Alpha MO coefficients                      R   N=       15129
  7.75097349E-07  7.32408941E-06  7.20891650E-05 -6.63960109E-05  1.49569060E-05
  1.25329442E-06  0.00000000E+00 -1.41513828E-04 -5.31912996E-05  0.00000000E+00
 -3.31206271E-05  1.33134219E-06  0.00000000E+00 -1.40509490E-06  0.00000000E+00
  0.00000000E+00  4.79309602E-06  8.29146840E-06  2.66891251E-05  0.00000000E+00
  0.00000000E+00  3.37188377E-05 -6.47041615E-05 -1.03268618E-05 -9.99965148E-05
  3.34583166E-04  4.78270497E-04 -3.11319935E-05 -2.57572115E-05  0.00000000E+00
  4.28332884E-04  2.66790135E-04  0.00000000E+00  1.40441471E-04  7.59879954E-05
  0.00000000E+00 -7.67094376E-06  0.00000000E+00  0.00000000E+00 -3.63125551E-06
 -1.27081766E-05 -6.03473553E-05  0.00000000E+00  0.00000000E+00  1.68519143E-04
  1.10047502E-04  1.00121142E+00 -4.16776743E-03  7.74329285E-04 -2.73558788E-03
 -1.02554259E-03  2.25326437E-05 -6.04446651E-05  0.00000000E+00  1.55132430E-05
  2.91381991E-05  0.00000000E+00 -1.13977381E-03  1.36196141E-03  0.00000000E+00
 -4.28569290E-05  1.34663778E-04  0.00000000E+00  6.39382454E-05  0.00000000E+00
  0.00000000E+00 -1.58421257E-05 -6.64266212E-06  3.36745997E-04  0.00000000E+00
  0.00000000E+00  2.32560643E-05  3.76340439E-04 -1.87706504E-05 -1.39201562E-04
  2.13220649E-04 -1.30853197E-04  4.15619286E-05 -2.02052233E-05  0.00000000E+00
 -1.68279950E-03  9.81837091E-04  0.00000000E+00 -1.52489411E-04  1.39255286E-04
  0.00000000E+00 -2.66871276E-05  0.00000000E+00  0.00000000E+00  2.67984516E-05
 -3.72314455E-05 -2.66790126E-04  0.00000000E+00  0.00000000E+00  3.78939832E-04
 -3.71303232E-04  3.31254776E-05  5.44432680E-04  5.37738680E-06  1.91269621E-05
 -1.92427308E-05  0.00000000E+00 -1.11011188E-04 -2.46006120E-05  0.00000000E+00
  9.85780447E-06  9.70840493E-04  1.13302183E-04  3.77365896E-05 -1.53191241E-05
 -1.28510385E-05 -2.77435013E-05  1.43460378E-04 -2.31174162E-04  9.85780447E-06
  9.70840493E-04  1.13302183E-04  3.77365896E-05 -1.53191241E-05  1.28510385E-05
 -2.77435013E-05  1.43460378E-04  2.31174162E-04  9.97009187E-01  2.75396779E-02
 -4.41538479E-02 -1.27527434E-02 -7.82654177E-04  2.08125486E-03  0.00000000E+00
  7.42104533E-03 -1.91017236E-02  0.00000000E+00  8.96322440E-04 -2.18167595E-03
  0.00000000E+00 -1.47451700E-04  0.00000000E+00  0.00000000E+00 -3.25235499E-04
 -2.55676134E-04  2.01914946E-03  0.00000000E+00  0.00000000E+00  3.09749822E-03
  2.78630154E-03 -9.31750857E-06 -8.68252631E-04  2.93505319E-02  1.23176832E-02
  5.65497759E-04 -6.64289059E-04  0.00000000E+00  7.77503694E-03 -2.45464564E-02
  0.00000000E+00  1.34734712E-03 -1.46372739E-03  0.00000000E+00  1.88828196E-04
  0.00000000E+00  0.00000000E+00  7.33890636E-05  3.88899363E-04 -3.64512931E-03
  0.00000000E+00  0.00000000E+00 -4.13719430E-03 -6.23730176E-03  1.02663622E-05
  1.19868306E-04  3.45540459E-04  9.65651009E-04 -3.35158720E-03 -2.73913991E-06
 -3.01625466E-06  0.00000000E+00 -3.78954977E-05 -2.42621721E-04  0.00000000E+00
 -5.37783933E-03 -1.61000336E-03  0.00000000E+00  6.52871136E-04  1.25960572E-03
  0.00000000E+00  3.30248186E-05  0.00000000E+00  0.00000000E+00  2.79630300E-04
  7.63294729E-05  1.47253703E-04  0.00000000E+00  0.00000000E+00 -1.27842598E-03
  2.25638904E-03 -2.49927053E-05 -1.21077918E-04  3.65272491E-03  6.25921450E-04
 -7.82728530E-05 -2.20750777E-05  0.00000000E+00 -2.13521600E-03  1.09966678E-03
  0.00000000E+00  4.74677450E-05 -5.06017762E-05  0.00000000E+00 -3.64632874E-05
  0.00000000E+00  0.00000000E+00  9.37439134E-05 -2.93273608E-05  2.80250460E-04
  0.00000000E+00  0.00000000E+00 -1.17204892E-03 -1.32505118E-03  1.14569843E-05
  2.94234303E-03 -5.68152971E-04  1.07001550E-04 -5.41846495E-06  0.00000000E+00
 -1.33910220E-04 -1.11620622E-03  0.00000000E+00  1.08002123E-05 -1.23536682E-03
  2.32308594E-05 -8.56823782E-05 -2.99373909E-05 -2.03934664E-05 -1.21404653E-04
 -3.23936417E-04  4.46180191E-04  1.08002123E-05 -1.23536682E-03  2.32308594E-05
 -8.56823782E-05 -2.99373909E-05  2.03934664E-05 -1.21404653E-04 -3.23936417E-04
 -4.46180191E-04  7.90528122E-05  5.72966773E-04 -1.22881648E-03  4.93328076E-03
  1.40179033E-04 -5.49102550E-04  0.00000000E+00  1.39006923E-03 -1.78690482E-03
  0.00000000E+00 -7.47982658E-05  1.23521322E-03  0.00000000E+00  5.38842579E-04
  0.00000000E+00  0.00000000E+00  5.38327423E-04  5.54915519E-04  6.29451713E-04
  0.00000000E+00  0.00000000E+00  1.23967594E-03  1.56877877E-03  9.96833104E-01
  2.75974527E-02 -1.90659493E-02 -9.35823960E-03  2.69607997E-03 -1.66566949E-03
  0.00000000E+00 -6.85866879E-03 -5.39530110E-03  0.00000000E+00 -2.48990970E-03
  1.26840361E-04  0.00000000E+00 -5.75389015E-04  0.00000000E+00  0.00000000E+00
 -7.92029072E-04 -5.07910992E-04  1.96988294E-03  0.00000000E+00  0.00000000E+00
  8.11583823E-04 -1.71062905E-03 -6.09290775E-05 -9.02405779E-04 -2.15337965E-03
  9.37752357E-03  7.97205995E-03  5.23762866E-05  6.69039299E-05  0.00000000E+00
 -3.00167518E-04 -3.10101825E-04  0.00000000E+00 -7.92143246E-03 -8.68778799E-03
  0.00000000E+00  9.56297078E-04 -1.31405026E-03  0.00000000E+00 -4.81398466E-04
  0.00000000E+00  0.00000000E+00 -6.47931175E-05  7.52336668E-04 -2.20066573E-03
  0.00000000E+00  0.00000000E+00 -1.85772367E-03  3.36622152E-03 -4.10538317E-06
 -7.71221179E-05  2.78079184E-03 -2.16540442E-03  1.35339892E-04 -7.00410052E-05
  0.00000000E+00 -7.52598608E-04  3.91642326E-04  0.00000000E+00 -1.49018164E-04
 -1.24208757E-03  0.00000000E+00  2.62303418E-06  0.00000000E+00  0.00000000E+00
 -1.38034568E-04  1.54360658E-05  9.24811049E-04  0.00000000E+00  0.00000000E+00
 -1.61678032E-03 -1.24693522E-03  7.08277137E-05  3.14510799E-03  5.85369060E-04
  1.14202480E-04 -2.88634172E-05  0.00000000E+00  9.23411250E-05 -1.31922305E-03
  0.00000000E+00  1.24565920E-05 -2.86819026E-03 -3.89872400E-04 -7.35671723E-05
 -6.86444593E-05  1.81851593E-05  3.01057653E-04 -5.21585339E-04  5.70890344E-04
  1.24565920E-05 -2.86819026E-03 -3.89872400E-04 -7.35671723E-05 -6.86444593E-05
 -1.81851593E-05  3.01057653E-04 -5.21585339E-04 -5.70890344E-04  1.90702601E-05
  1.10211354E-04 -1.37641666E-03 -6.29418948E-04 -9.17307825E-05 -6.83288378E-05
  0.00000000E+00  5.74574870E-04 -3.82684247E-04  0.00000000E+00  2.35652532E-04
 -1.66706708E-04  0.00000000E+00  7.93912369E-05  0.00000000E+00  0.00000000E+00
 -1.80475275E-05 -1.32766920E-04 -1.87700994E-04  0.00000000E+00  0.00000000E+00
 -8.14132418E-05  5.96970135E-04  5.25247357E-06 -5.62161703E-05  1.25444330E-03
  3.09210831E-04 -6.45782445E-05 -3.16894615E-05  0.00000000E+00 -5.31364253E-04
 -1.01922834E-03  0.00000000E+00  1.86358299E-05 -1.78312957E-04  0.00000000E+00
  6.23058475E-05  0.00000000E+00  0.00000000E+00 -1.26707981E-04  1.50465718E-05
 -8.34351692E-05  0.00000000E+00  0.00000000E+00 -5.51558400E-04 -3.77781670E-04
 -5.68670759E-05 -6.94124627E-04 -1.76434748E-03  1.26508023E-02  1.15505603E-02
 -6.51018568E-06  3.18064298E-05  0.00000000E+00  3.70401766E-04 -4.09961962E-04
  0.00000000E+00  8.68989980E-03 -5.91786256E-03  0.00000000E+00  2.01657280E-03
 -1.33335041E-03  0.00000000E+00 -1.59396018E-04  0.00000000E+00  0.00000000E+00
  6.17612788E-05  2.76971887E-06 -1.57102686E-03  0.00000000E+00  0.00000000E+00
  8.31318131E-04 -2.90668035E-03  9.97146785E-01  3.60816975E-02 -6.45259302E-02
 -2.32496769E-02  2.50905646E-04 -8.43926733E-05  0.00000000E+00  5.56629911E-03
 -3.34331364E-03  0.00000000E+00  2.03645269E-03 -1.40309867E-03  0.00000000E+00
  6.04501201E-04  0.00000000E+00  0.00000000E+00 -5.46694338E-04  9.56197125E-04
  6.45159727E-04  0.00000000E+00  0.00000000E+00 -6.74909587E-04  9.82842741E-04
 -7.77799023E-04  1.67080830E-02  1.87812506E-03  1.24447006E-03  1.17503508E-03
  0.00000000E+00 -5.13257468E-03 -3.10961137E-03  0.00000000E+00 -6.40968119E-04
  1.58205767E-02  1.43922069E-03  2.00444184E-05 -9.34171671E-04  1.38504163E-03
 -1.20236125E-03  3.51706241E-03 -4.22415702E-03 -6.40968119E-04  1.58205767E-02
  1.43922069E-03  2.00444184E-05 -9.34171671E-04 -1.38504163E-03 -1.20236125E-03
  3.51706241E-03  4.22415702E-03  7.17132505E-05  4.23382667E-04 -7.08260071E-03
  1.29347445E-03  4.55213327E-06 -3.64099740E-04  0.00000000E+00  2.99842586E-04
 -2.66687170E-03  0.00000000E+00 -2.72215149E-04  5.03130330E-04  0.00000000E+00
  1.84016083E-04  0.00000000E+00  0.00000000E+00  1.07953278E-04 -6.74513651E-05
 -6.54614301E-04  0.00000000E+00  0.00000000E+00  3.42686507E-04  4.36522409E-04
 -6.27229784E-05 -1.88207289E-04  5.33852686E-03 -4.67996722E-03  1.44920401E-04
  4.95930054E-04  0.00000000E+00  3.16899026E-03 -6.52611853E-03  0.00000000E+00
 -1.23952950E-03 -2.34214174E-04  0.00000000E+00  7.44342037E-05  0.00000000E+00
  0.00000000E+00 -2.08672596E-04 -4.02951213E-04 -3.56969616E-04  0.00000000E+00
  0.00000000E+00  5.27953699E-04 -3.14287412E-03 -2.73233017E-01  1.03843709E+00
  6.39695163E-02 -6.70029250E-02  1.16164097E-02  3.05307359E-03 -6.65095418E-03
  0.00000000E+00  9.93132757E-04 -2.31249149E-03  0.00000000E+00 -2.77721308E-02
  1.74471232E-02  0.00000000E+00  2.14001485E-03 -2.26834896E-03  0.00000000E+00
 -5.52399963E-04  0.00000000E+00  0.00000000E+00  4.22827379E-05  4.72319018E-04
  6.02246556E-03  0.00000000E+00  0.00000000E+00 -2.36151802E-03  9.27626505E-03
 -1.28617680E-04 -7.27244169E-04  6.28585083E-04 -1.78583647E-02  6.20316870E-04
 -2.62895293E-04  0.00000000E+00 -2.89193847E-02  1.39196004E-02  0.00000000E+00
  1.33610092E-03 -2.29681342E-03  0.00000000E+00  3.45265951E-04  0.00000000E+00
  0.00000000E+00 -2.29613268E-04  1.06512162E-03 -3.43727344E-03  0.00000000E+00
  0.00000000E+00  4.95177971E-03 -9.47817980E-03  4.71565106E-07  2.28870623E-02
  1.93269466E-03  5.01168450E-04 -6.11910816E-05  0.00000000E+00 -5.62999704E-03
 -2.65081623E-03  0.00000000E+00 -3.83430547E-04  1.45734676E-02  1.95736560E-04
  4.62482780E-04 -3.18333542E-04 -1.64538331E-04 -2.31039957E-03  2.23017758E-03